LAMMPS (22 Dec 2022)
WARNING: Using I/O redirection is unreliable with parallel runs. Better to use the -in switch to read input files. (../lammps.cpp:531)
# PREREQUISITES:
#
#     You must use moltemplate.sh to create 3 files:
#        system.data  system.in.init  system.in.settings
#     (Follow the instructions in README_setup.sh,
#      or run the file as a script using ./README_setup.sh)

# ------------------------------- Initialization Section --------------------

units real
atom_style full
pair_style lj/class2/coul/long 10.0 10.0
kspace_style pppm 1.0e-4
bond_style class2
angle_style class2
dihedral_style class2
improper_style class2


# ------------------------------- Atom Definition Section -------------------

read_data       "reaxed.data" extra/bond/per/atom 1
Reading data file ...
  orthogonal box = (5.3835842 5.3835842 5.3835842) to (37.478536 37.478536 37.478536)
  1 by 2 by 3 MPI processor grid
  reading atoms ...
  2996 atoms
  reading velocities ...
  2996 velocities
  scanning bonds ...
  5 = max bonds/atom
  scanning angles ...
  6 = max angles/atom
  scanning dihedrals ...
  14 = max dihedrals/atom
  scanning impropers ...
  4 = max impropers/atom
  reading bonds ...
  3131 bonds
  reading angles ...
  5396 angles
  reading dihedrals ...
  7142 dihedrals
  reading impropers ...
  2556 impropers
Finding 1-2 1-3 1-4 neighbors ...
  special bond factors lj:    0        0        0       
  special bond factors coul:  0        0        0       
     4 = max # of 1-2 neighbors
     7 = max # of 1-3 neighbors
    15 = max # of 1-4 neighbors
    17 = max # of special neighbors
  special bonds CPU = 0.001 seconds
  read_data CPU = 0.047 seconds

include calc.pram

# Masses

mass		1    12.01115  # c
mass		2    12.01115  # c1
mass		3    12.01115  # c3h
mass		4    12.01115  # cp
mass		5     1.00797  # h
mass		6     1.00797  # hc
mass		7    15.99940  # o3e
mass		8    15.99940  # oc
mass		9    15.99940  # oh

# Potentials

pair_coeff	 1  1    0.05400    4.01000  # c,c
pair_coeff	 2  2    0.05400    4.01000  # c1,c1
pair_coeff	 3  3    0.05400    4.01000  # c3h,c3h
pair_coeff	 4  4    0.06400    4.01000  # cp,cp
pair_coeff	 5  5    0.02000    2.99500  # h,h
pair_coeff	 6  6    0.02000    2.99500  # hc,hc
pair_coeff	 7  7    0.24000    3.53500  # o3e,o3e
pair_coeff	 8  8    0.24000    3.53500  # oc,oc
pair_coeff	 9  9    0.24000    3.53500  # oh,oh

# Bond Coeffs

bond_coeff	 1    1.53000  299.67000 -501.77000  679.81000  # c,c
bond_coeff	 2    1.53000  299.67000 -501.77000  679.81000  # c,c1
bond_coeff	 3    1.53000  299.67000 -501.77000  679.81000  # c,c3h
bond_coeff	 4    1.10100  345.00000 -691.89000  844.60000  # c,hc
bond_coeff	 5    1.42000  400.39540 -835.19510 1313.01420  # c,o3e
bond_coeff	 6    1.42000  400.39540 -835.19510 1313.01420  # c,oc
bond_coeff	 7    1.42000  400.39540 -835.19510 1313.01420  # c,oh
bond_coeff	 8    1.10100  345.00000 -691.89000  844.60000  # c1,hc
bond_coeff	 9    1.42000  400.39540 -835.19510 1313.01420  # c1,oc
bond_coeff	10    1.10100  345.00000 -691.89000  844.60000  # c3h,hc
bond_coeff	11    1.42000  400.39540 -835.19510 1313.01420  # c3h,o3e
bond_coeff	12    1.41700  470.83610 -627.61790 1327.63450  # cp,cp
bond_coeff	13    1.09820  372.82510 -803.45260  894.31730  # cp,hc
bond_coeff	14    1.37680  428.87980 -738.23510 1114.96550  # cp,oc
bond_coeff	15    0.96000  493.84800    0.00000    0.00000  # h,oh

# Angle Coeffs

angle_coeff	 1  112.67000   39.51600   -7.44300   -9.55830  # c,c,c
angle_coeff	 2  110.77000   41.45300  -10.60400    5.12900  # c,c,hc
angle_coeff	 3  111.27000   54.53810   -8.36420  -13.08380  # c,c,oc
angle_coeff	 4  112.67000   39.51600   -7.44300   -9.55830  # c,c1,c
angle_coeff	 5  110.77000   41.45300  -10.60400    5.12900  # c,c1,hc
angle_coeff	 6  111.27000   54.53810   -8.36420  -13.08380  # c,c1,oc
angle_coeff	 7  112.67000   39.51600   -7.44300   -9.55830  # c,c3h,c
angle_coeff	 8  110.77000   41.45300  -10.60400    5.12900  # c,c3h,hc
angle_coeff	 9  111.27000   54.53810   -8.36420  -13.08380  # c,c3h,o3e
angle_coeff	10  104.50000   35.74540  -10.00670   -6.27290  # c,o3e,c3h
angle_coeff	11  104.50000   35.74540  -10.00670   -6.27290  # c,oc,c1
angle_coeff	12  102.96950   38.97390   -6.25950   -8.17100  # c,oc,cp
angle_coeff	13  109.00000   58.50000    0.00000    0.00000  # c,oh,h
angle_coeff	14  110.77000   41.45300  -10.60400    5.12900  # c1,c,hc
angle_coeff	15  111.27000   54.53810   -8.36420  -13.08380  # c1,c,oc
angle_coeff	16  111.27000   54.53810   -8.36420  -13.08380  # c1,c,oh
angle_coeff	17  110.77000   41.45300  -10.60400    5.12900  # c3h,c,hc
angle_coeff	18  111.27000   54.53810   -8.36420  -13.08380  # c3h,c,o3e
angle_coeff	19  111.27000   54.53810   -8.36420  -13.08380  # c3h,c,oc
angle_coeff	20  118.90000   61.02260  -34.99310    0.00000  # cp,cp,cp
angle_coeff	21  117.94000   35.15580  -12.46820    0.00000  # cp,cp,hc
angle_coeff	22  123.42000   73.67810  -21.67870    0.00000  # cp,cp,oc
angle_coeff	23  107.66000   39.64100  -12.92100   -2.43180  # hc,c,hc
angle_coeff	24  108.72800   58.54460  -10.80880  -12.40060  # hc,c,o3e
angle_coeff	25  108.72800   58.54460  -10.80880  -12.40060  # hc,c,oc
angle_coeff	26  108.72800   58.54460  -10.80880  -12.40060  # hc,c,oh
angle_coeff	27  108.72800   58.54460  -10.80880  -12.40060  # hc,c1,oc
angle_coeff	28  108.72800   58.54460  -10.80880  -12.40060  # hc,c3h,o3e

# BondBond Coeffs

angle_coeff	 1 bb    0.00000    1.53000    1.53000  # c,c,c
angle_coeff	 2 bb    3.38720    1.53000    1.10100  # c,c,hc
angle_coeff	 3 bb   11.43180    1.53000    1.42000  # c,c,oc
angle_coeff	 4 bb    0.00000    1.53000    1.53000  # c,c1,c
angle_coeff	 5 bb    3.38720    1.53000    1.10100  # c,c1,hc
angle_coeff	 6 bb   11.43180    1.53000    1.42000  # c,c1,oc
angle_coeff	 7 bb    0.00000    1.53000    1.53000  # c,c3h,c
angle_coeff	 8 bb    3.38720    1.53000    1.10100  # c,c3h,hc
angle_coeff	 9 bb   11.43180    1.53000    1.42000  # c,c3h,o3e
angle_coeff	10 bb   -7.11310    1.42000    1.42000  # c,o3e,c3h
angle_coeff	11 bb   -7.11310    1.42000    1.42000  # c,oc,c1
angle_coeff	12 bb    0.00000    1.42000    1.37680  # c,oc,cp
angle_coeff	13 bb    0.00000    1.42000    0.96000  # c,oh,h
angle_coeff	14 bb    3.38720    1.53000    1.10100  # c1,c,hc
angle_coeff	15 bb   11.43180    1.53000    1.42000  # c1,c,oc
angle_coeff	16 bb   11.43180    1.53000    1.42000  # c1,c,oh
angle_coeff	17 bb    3.38720    1.53000    1.10100  # c3h,c,hc
angle_coeff	18 bb   11.43180    1.53000    1.42000  # c3h,c,o3e
angle_coeff	19 bb   11.43180    1.53000    1.42000  # c3h,c,oc
angle_coeff	20 bb   68.28560    1.41700    1.41700  # cp,cp,cp
angle_coeff	21 bb    1.07950    1.41700    1.09820  # cp,cp,hc
angle_coeff	22 bb   48.47540    1.41700    1.37680  # cp,cp,oc
angle_coeff	23 bb    5.33160    1.10100    1.10100  # hc,c,hc
angle_coeff	24 bb   23.19790    1.10100    1.42000  # hc,c,o3e
angle_coeff	25 bb   23.19790    1.10100    1.42000  # hc,c,oc
angle_coeff	26 bb   23.19790    1.10100    1.42000  # hc,c,oh
angle_coeff	27 bb   23.19790    1.10100    1.42000  # hc,c1,oc
angle_coeff	28 bb   23.19790    1.10100    1.42000  # hc,c3h,o3e

# BondAngle Coeffs

angle_coeff	 1 ba    8.01600    8.01600    1.53000    1.53000  # c,c,c
angle_coeff	 2 ba   20.75400   11.42100    1.53000    1.10100  # c,c,hc
angle_coeff	 3 ba   20.40330    2.68680    1.53000    1.42000  # c,c,oc
angle_coeff	 4 ba    8.01600    8.01600    1.53000    1.53000  # c,c1,c
angle_coeff	 5 ba   20.75400   11.42100    1.53000    1.10100  # c,c1,hc
angle_coeff	 6 ba   20.40330    2.68680    1.53000    1.42000  # c,c1,oc
angle_coeff	 7 ba    8.01600    8.01600    1.53000    1.53000  # c,c3h,c
angle_coeff	 8 ba   20.75400   11.42100    1.53000    1.10100  # c,c3h,hc
angle_coeff	 9 ba    2.68680   20.40330    1.53000    1.42000  # c,c3h,o3e
angle_coeff	10 ba   -2.81120   -2.81120    1.42000    1.42000  # c,o3e,c3h
angle_coeff	11 ba   -2.81120   -2.81120    1.42000    1.42000  # c,oc,c1
angle_coeff	12 ba    0.00000    0.00000    1.42000    1.37680  # c,oc,cp
angle_coeff	13 ba    0.00000    0.00000    1.42000    0.96000  # c,oh,h
angle_coeff	14 ba   11.42100   20.75400    1.53000    1.10100  # c1,c,hc
angle_coeff	15 ba   20.40330    2.68680    1.53000    1.42000  # c1,c,oc
angle_coeff	16 ba   20.40330    2.68680    1.53000    1.42000  # c1,c,oh
angle_coeff	17 ba   11.42100   20.75400    1.53000    1.10100  # c3h,c,hc
angle_coeff	18 ba    2.68680   20.40330    1.53000    1.42000  # c3h,c,o3e
angle_coeff	19 ba   20.40330    2.68680    1.53000    1.42000  # c3h,c,oc
angle_coeff	20 ba   28.87080   28.87080    1.41700    1.41700  # cp,cp,cp
angle_coeff	21 ba   20.00330   24.21830    1.41700    1.09820  # cp,cp,hc
angle_coeff	22 ba   58.47900  107.68060    1.41700    1.37680  # cp,cp,oc
angle_coeff	23 ba   18.10300   18.10300    1.10100    1.10100  # hc,c,hc
angle_coeff	24 ba    4.61890   55.32700    1.10100    1.42000  # hc,c,o3e
angle_coeff	25 ba   55.32700    4.61890    1.10100    1.42000  # hc,c,oc
angle_coeff	26 ba    4.61890   55.32700    1.10100    1.42000  # hc,c,oh
angle_coeff	27 ba   55.32700    4.61890    1.10100    1.42000  # hc,c1,oc
angle_coeff	28 ba    4.61890   55.32700    1.10100    1.42000  # hc,c3h,o3e

# Dihedral Coeffs

dihedral_coeff	 1    0.00000    0.00000    0.03160    0.00000   -0.16810    0.00000  # c,c,c,hc
dihedral_coeff	 2    0.71370    0.00000    0.26600    0.00000   -0.25450    0.00000  # c,c,c,oc
dihedral_coeff	 3   -0.52030    0.00000   -0.30280    0.00000   -0.34500    0.00000  # c,c,oc,c1
dihedral_coeff	 4    0.00000    0.00000    0.00000    0.00000    0.13000  180.00000  # c,c,oc,cp
dihedral_coeff	 5    0.00000    0.00000    0.03160    0.00000   -0.16810    0.00000  # c,c1,c,hc
dihedral_coeff	 6    0.71370    0.00000    0.26600    0.00000   -0.25450    0.00000  # c,c1,c,oc
dihedral_coeff	 7    0.71370    0.00000    0.26600    0.00000   -0.25450    0.00000  # c,c1,c,oh
dihedral_coeff	 8   -0.52030    0.00000   -0.30280    0.00000   -0.34500    0.00000  # c,c1,oc,c
dihedral_coeff	 9    0.00000    0.00000    0.03160    0.00000   -0.16810    0.00000  # c,c3h,c,hc
dihedral_coeff	10    0.71370    0.00000    0.26600    0.00000   -0.25450    0.00000  # c,c3h,c,o3e
dihedral_coeff	11    0.71370    0.00000    0.26600    0.00000   -0.25450    0.00000  # c,c3h,c,oc
dihedral_coeff	12   -0.52030    0.00000   -0.30280    0.00000   -0.34500    0.00000  # c,c3h,o3e,c
dihedral_coeff	13    0.53020    0.00000    0.00000    0.00000   -0.39660    0.00000  # c,o3e,c3h,hc
dihedral_coeff	14    0.53020    0.00000    0.00000    0.00000   -0.39660    0.00000  # c,oc,c1,hc
dihedral_coeff	15    0.00000    0.00000    1.50000    0.00000    0.00000    0.00000  # c,oc,cp,cp
dihedral_coeff	16   -0.52030    0.00000   -0.30280    0.00000   -0.34500    0.00000  # c1,c,oc,c1
dihedral_coeff	17    0.00000    0.00000    0.00000    0.00000    0.13000  180.00000  # c1,c,oc,cp
dihedral_coeff	18    0.00000    0.00000    0.00000    0.00000    0.13000  180.00000  # c1,c,oh,h
dihedral_coeff	19    0.53020    0.00000    0.00000    0.00000   -0.39660    0.00000  # c1,oc,c,hc
dihedral_coeff	20    0.00000    0.00000    0.00000    0.00000    0.13000  180.00000  # c3h,c,oc,cp
dihedral_coeff	21    0.53020    0.00000    0.00000    0.00000   -0.39660    0.00000  # c3h,o3e,c,hc
dihedral_coeff	22    8.36670    0.00000    1.19320    0.00000    0.00000    0.00000  # cp,cp,cp,cp
dihedral_coeff	23    0.00000    0.00000    3.96610    0.00000    0.00000    0.00000  # cp,cp,cp,hc
dihedral_coeff	24    0.00000    0.00000    4.84980    0.00000    0.00000    0.00000  # cp,cp,cp,oc
dihedral_coeff	25    0.95130    0.00000    0.11550    0.00000    0.07200    0.00000  # cp,oc,c,hc
dihedral_coeff	26    0.00000    0.00000    0.00000    0.00000    0.13000  180.00000  # h,oh,c,hc
dihedral_coeff	27   -0.14320    0.00000    0.06170    0.00000   -0.10830    0.00000  # hc,c,c,hc
dihedral_coeff	28   -0.14350    0.00000    0.25300    0.00000   -0.09050    0.00000  # hc,c,c,oc
dihedral_coeff	29   -0.14320    0.00000    0.06170    0.00000   -0.10830    0.00000  # hc,c,c1,hc
dihedral_coeff	30   -0.14350    0.00000    0.25300    0.00000   -0.09050    0.00000  # hc,c,c1,oc
dihedral_coeff	31   -0.14320    0.00000    0.06170    0.00000   -0.10830    0.00000  # hc,c,c3h,hc
dihedral_coeff	32   -0.14350    0.00000    0.25300    0.00000   -0.09050    0.00000  # hc,c,c3h,o3e
dihedral_coeff	33   -0.14350    0.00000    0.25300    0.00000   -0.09050    0.00000  # hc,c1,c,oc
dihedral_coeff	34   -0.14350    0.00000    0.25300    0.00000   -0.09050    0.00000  # hc,c1,c,oh
dihedral_coeff	35   -0.14350    0.00000    0.25300    0.00000   -0.09050    0.00000  # hc,c3h,c,o3e
dihedral_coeff	36   -0.14350    0.00000    0.25300    0.00000   -0.09050    0.00000  # hc,c3h,c,oc
dihedral_coeff	37    0.00000    0.00000    1.87690    0.00000    0.00000    0.00000  # hc,cp,cp,hc
dihedral_coeff	38    0.00000    0.00000    1.72340    0.00000    0.00000    0.00000  # hc,cp,cp,oc
dihedral_coeff	39   -0.18200    0.00000   -0.10840    0.00000   -0.70470    0.00000  # o3e,c3h,c,oc
dihedral_coeff	40   -0.18200    0.00000   -0.10840    0.00000   -0.70470    0.00000  # oc,c,c1,oc
dihedral_coeff	41   -0.18200    0.00000   -0.10840    0.00000   -0.70470    0.00000  # oc,c1,c,oh

# MiddleBondTorsion Coeffs

dihedral_coeff	 1 mbt  -14.87900   -3.65810   -0.31380    1.53000  # c,c,c,hc
dihedral_coeff	 2 mbt  -21.88420   -7.67640   -0.68680    1.53000  # c,c,c,oc
dihedral_coeff	 3 mbt   -5.92880   -2.70070   -0.31750    1.42000  # c,c,oc,c1
dihedral_coeff	 4 mbt    0.00000    0.00000    0.00000    1.42000  # c,c,oc,cp
dihedral_coeff	 5 mbt  -14.87900   -3.65810   -0.31380    1.53000  # c,c1,c,hc
dihedral_coeff	 6 mbt  -21.88420   -7.67640   -0.68680    1.53000  # c,c1,c,oc
dihedral_coeff	 7 mbt  -21.88420   -7.67640   -0.68680    1.53000  # c,c1,c,oh
dihedral_coeff	 8 mbt   -5.92880   -2.70070   -0.31750    1.42000  # c,c1,oc,c
dihedral_coeff	 9 mbt  -14.87900   -3.65810   -0.31380    1.53000  # c,c3h,c,hc
dihedral_coeff	10 mbt  -21.88420   -7.67640   -0.68680    1.53000  # c,c3h,c,o3e
dihedral_coeff	11 mbt  -21.88420   -7.67640   -0.68680    1.53000  # c,c3h,c,oc
dihedral_coeff	12 mbt   -5.92880   -2.70070   -0.31750    1.42000  # c,c3h,o3e,c
dihedral_coeff	13 mbt   -6.80070   -4.65460   -1.41010    1.42000  # c,o3e,c3h,hc
dihedral_coeff	14 mbt   -6.80070   -4.65460   -1.41010    1.42000  # c,oc,c1,hc
dihedral_coeff	15 mbt    0.00000    0.00000    0.00000    1.37680  # c,oc,cp,cp
dihedral_coeff	16 mbt   -5.92880   -2.70070   -0.31750    1.42000  # c1,c,oc,c1
dihedral_coeff	17 mbt    0.00000    0.00000    0.00000    1.42000  # c1,c,oc,cp
dihedral_coeff	18 mbt    0.00000    0.00000    0.00000    1.42000  # c1,c,oh,h
dihedral_coeff	19 mbt   -6.80070   -4.65460   -1.41010    1.42000  # c1,oc,c,hc
dihedral_coeff	20 mbt    0.00000    0.00000    0.00000    1.42000  # c3h,c,oc,cp
dihedral_coeff	21 mbt   -6.80070   -4.65460   -1.41010    1.42000  # c3h,o3e,c,hc
dihedral_coeff	22 mbt   27.59890   -2.31200    0.00000    1.41700  # cp,cp,cp,cp
dihedral_coeff	23 mbt    0.00000   -1.15210    0.00000    1.41700  # cp,cp,cp,hc
dihedral_coeff	24 mbt    0.00000    4.82550    0.00000    1.41700  # cp,cp,cp,oc
dihedral_coeff	25 mbt    0.00000    0.00000    0.00000    1.42000  # cp,oc,c,hc
dihedral_coeff	26 mbt    0.00000    0.00000    0.00000    1.42000  # h,oh,c,hc
dihedral_coeff	27 mbt  -14.26100   -0.53220   -0.48640    1.53000  # hc,c,c,hc
dihedral_coeff	28 mbt  -16.79750   -1.22960   -0.27500    1.53000  # hc,c,c,oc
dihedral_coeff	29 mbt  -14.26100   -0.53220   -0.48640    1.53000  # hc,c,c1,hc
dihedral_coeff	30 mbt  -16.79750   -1.22960   -0.27500    1.53000  # hc,c,c1,oc
dihedral_coeff	31 mbt  -14.26100   -0.53220   -0.48640    1.53000  # hc,c,c3h,hc
dihedral_coeff	32 mbt  -16.79750   -1.22960   -0.27500    1.53000  # hc,c,c3h,o3e
dihedral_coeff	33 mbt  -16.79750   -1.22960   -0.27500    1.53000  # hc,c1,c,oc
dihedral_coeff	34 mbt  -16.79750   -1.22960   -0.27500    1.53000  # hc,c1,c,oh
dihedral_coeff	35 mbt  -16.79750   -1.22960   -0.27500    1.53000  # hc,c3h,c,o3e
dihedral_coeff	36 mbt  -16.79750   -1.22960   -0.27500    1.53000  # hc,c3h,c,oc
dihedral_coeff	37 mbt    0.00000    4.82280    0.00000    1.41700  # hc,cp,cp,hc
dihedral_coeff	38 mbt    0.00000    5.54320    0.00000    1.41700  # hc,cp,cp,oc
dihedral_coeff	39 mbt  -17.25850   -3.61570   -0.83640    1.53000  # o3e,c3h,c,oc
dihedral_coeff	40 mbt  -17.25850   -3.61570   -0.83640    1.53000  # oc,c,c1,oc
dihedral_coeff	41 mbt  -17.25850   -3.61570   -0.83640    1.53000  # oc,c1,c,oh

# EndBondTorsion Coeffs

dihedral_coeff	 1 ebt    0.24860    0.24220   -0.09250    0.08140    0.05910    0.22190    1.53000    1.10100  # c,c,c,hc
dihedral_coeff	 2 ebt    1.15380    0.84090   -0.91380   -0.31900    0.44110   -0.71740    1.53000    1.42000  # c,c,c,oc
dihedral_coeff	 3 ebt   -0.24560    1.05170   -0.77950    0.47410    1.26350    0.55760    1.53000    1.42000  # c,c,oc,c1
dihedral_coeff	 4 ebt    0.00000    0.00000    0.00000    0.00000    0.00000    0.00000    1.53000    1.37680  # c,c,oc,cp
dihedral_coeff	 5 ebt    0.24860    0.24220   -0.09250    0.08140    0.05910    0.22190    1.53000    1.10100  # c,c1,c,hc
dihedral_coeff	 6 ebt    1.15380    0.84090   -0.91380   -0.31900    0.44110   -0.71740    1.53000    1.42000  # c,c1,c,oc
dihedral_coeff	 7 ebt   -0.31900    0.44110   -0.71740    1.15380    0.84090   -0.91380    1.53000    1.42000  # c,c1,c,oh
dihedral_coeff	 8 ebt    0.47410    1.26350    0.55760   -0.24560    1.05170   -0.77950    1.53000    1.42000  # c,c1,oc,c
dihedral_coeff	 9 ebt    0.24860    0.24220   -0.09250    0.08140    0.05910    0.22190    1.53000    1.10100  # c,c3h,c,hc
dihedral_coeff	10 ebt   -0.31900    0.44110   -0.71740    1.15380    0.84090   -0.91380    1.53000    1.42000  # c,c3h,c,o3e
dihedral_coeff	11 ebt    1.15380    0.84090   -0.91380   -0.31900    0.44110   -0.71740    1.53000    1.42000  # c,c3h,c,oc
dihedral_coeff	12 ebt   -0.24560    1.05170   -0.77950    0.47410    1.26350    0.55760    1.53000    1.42000  # c,c3h,o3e,c
dihedral_coeff	13 ebt   -0.16200    0.15640   -1.14080   -0.60540    1.33390    0.96480    1.42000    1.10100  # c,o3e,c3h,hc
dihedral_coeff	14 ebt   -0.16200    0.15640   -1.14080   -0.60540    1.33390    0.96480    1.42000    1.10100  # c,oc,c1,hc
dihedral_coeff	15 ebt    0.00000    0.00000    0.00000    0.00000    0.00000    0.00000    1.42000    1.41700  # c,oc,cp,cp
dihedral_coeff	16 ebt    0.47410    1.26350    0.55760   -0.24560    1.05170   -0.77950    1.53000    1.42000  # c1,c,oc,c1
dihedral_coeff	17 ebt    0.00000    0.00000    0.00000    0.00000    0.00000    0.00000    1.53000    1.37680  # c1,c,oc,cp
dihedral_coeff	18 ebt    0.00000    0.00000    0.00000    0.00000    0.00000    0.00000    1.53000    0.96000  # c1,c,oh,h
dihedral_coeff	19 ebt   -0.60540    1.33390    0.96480   -0.16200    0.15640   -1.14080    1.42000    1.10100  # c1,oc,c,hc
dihedral_coeff	20 ebt    0.00000    0.00000    0.00000    0.00000    0.00000    0.00000    1.53000    1.37680  # c3h,c,oc,cp
dihedral_coeff	21 ebt   -0.60540    1.33390    0.96480   -0.16200    0.15640   -1.14080    1.42000    1.10100  # c3h,o3e,c,hc
dihedral_coeff	22 ebt   -0.11850    6.32040    0.00000   -0.11850    6.32040    0.00000    1.41700    1.41700  # cp,cp,cp,cp
dihedral_coeff	23 ebt    0.00000   -6.89580    0.00000    0.00000   -0.46690    0.00000    1.41700    1.09820  # cp,cp,cp,hc
dihedral_coeff	24 ebt    0.00000    0.26550    0.00000    0.00000    4.89050    0.00000    1.41700    1.37680  # cp,cp,cp,oc
dihedral_coeff	25 ebt    0.00000    0.00000    0.00000    0.00000    0.00000    0.00000    1.37680    1.10100  # cp,oc,c,hc
dihedral_coeff	26 ebt    0.00000    0.00000    0.00000    0.00000    0.00000    0.00000    0.96000    1.10100  # h,oh,c,hc
dihedral_coeff	27 ebt    0.21300    0.31200    0.07770    0.21300    0.31200    0.07770    1.10100    1.10100  # hc,c,c,hc
dihedral_coeff	28 ebt    0.59030    0.66690    0.85840    0.96810    0.95510    0.04360    1.10100    1.42000  # hc,c,c,oc
dihedral_coeff	29 ebt    0.21300    0.31200    0.07770    0.21300    0.31200    0.07770    1.10100    1.10100  # hc,c,c1,hc
dihedral_coeff	30 ebt    0.59030    0.66690    0.85840    0.96810    0.95510    0.04360    1.10100    1.42000  # hc,c,c1,oc
dihedral_coeff	31 ebt    0.21300    0.31200    0.07770    0.21300    0.31200    0.07770    1.10100    1.10100  # hc,c,c3h,hc
dihedral_coeff	32 ebt    0.96810    0.95510    0.04360    0.59030    0.66690    0.85840    1.10100    1.42000  # hc,c,c3h,o3e
dihedral_coeff	33 ebt    0.59030    0.66690    0.85840    0.96810    0.95510    0.04360    1.10100    1.42000  # hc,c1,c,oc
dihedral_coeff	34 ebt    0.96810    0.95510    0.04360    0.59030    0.66690    0.85840    1.10100    1.42000  # hc,c1,c,oh
dihedral_coeff	35 ebt    0.96810    0.95510    0.04360    0.59030    0.66690    0.85840    1.10100    1.42000  # hc,c3h,c,o3e
dihedral_coeff	36 ebt    0.59030    0.66690    0.85840    0.96810    0.95510    0.04360    1.10100    1.42000  # hc,c3h,c,oc
dihedral_coeff	37 ebt    0.00000   -0.68900    0.00000    0.00000   -0.68900    0.00000    1.09820    1.09820  # hc,cp,cp,hc
dihedral_coeff	38 ebt    0.00000    4.26410    0.00000    0.00000   -1.58670    0.00000    1.09820    1.37680  # hc,cp,cp,oc
dihedral_coeff	39 ebt    1.01650    0.75530   -0.46090    1.01650    0.75530   -0.46090    1.42000    1.42000  # o3e,c3h,c,oc
dihedral_coeff	40 ebt    1.01650    0.75530   -0.46090    1.01650    0.75530   -0.46090    1.42000    1.42000  # oc,c,c1,oc
dihedral_coeff	41 ebt    1.01650    0.75530   -0.46090    1.01650    0.75530   -0.46090    1.42000    1.42000  # oc,c1,c,oh

# AngleTorsion Coeffs

dihedral_coeff	 1 at   -0.24540    0.00000   -0.11360    0.31130    0.45160   -0.19880  112.67000  110.77000  # c,c,c,hc
dihedral_coeff	 2 at    0.96720   -0.75660   -1.23310    0.56230   -0.30410   -0.40150  112.67000  111.27000  # c,c,c,oc
dihedral_coeff	 3 at   -2.74660    1.48770   -0.89550    0.56760    0.94500    0.07030  111.27000  104.50000  # c,c,oc,c1
dihedral_coeff	 4 at    0.00000    0.00000    0.00000    0.00000    0.00000    0.00000  111.27000  102.96950  # c,c,oc,cp
dihedral_coeff	 5 at   -0.24540    0.00000   -0.11360    0.31130    0.45160   -0.19880  112.67000  110.77000  # c,c1,c,hc
dihedral_coeff	 6 at    0.96720   -0.75660   -1.23310    0.56230   -0.30410   -0.40150  112.67000  111.27000  # c,c1,c,oc
dihedral_coeff	 7 at    0.56230   -0.30410   -0.40150    0.96720   -0.75660   -1.23310  112.67000  111.27000  # c,c1,c,oh
dihedral_coeff	 8 at    0.56760    0.94500    0.07030   -2.74660    1.48770   -0.89550  111.27000  104.50000  # c,c1,oc,c
dihedral_coeff	 9 at   -0.24540    0.00000   -0.11360    0.31130    0.45160   -0.19880  112.67000  110.77000  # c,c3h,c,hc
dihedral_coeff	10 at    0.56230   -0.30410   -0.40150    0.96720   -0.75660   -1.23310  112.67000  111.27000  # c,c3h,c,o3e
dihedral_coeff	11 at    0.96720   -0.75660   -1.23310    0.56230   -0.30410   -0.40150  112.67000  111.27000  # c,c3h,c,oc
dihedral_coeff	12 at   -2.74660    1.48770   -0.89550    0.56760    0.94500    0.07030  111.27000  104.50000  # c,c3h,o3e,c
dihedral_coeff	13 at   -0.77770    0.43400   -0.66530   -1.82340    1.63930    0.51440  104.50000  108.72800  # c,o3e,c3h,hc
dihedral_coeff	14 at   -0.77770    0.43400   -0.66530   -1.82340    1.63930    0.51440  104.50000  108.72800  # c,oc,c1,hc
dihedral_coeff	15 at    0.00000    0.00000    0.00000    0.00000    0.00000    0.00000  102.96950  123.42000  # c,oc,cp,cp
dihedral_coeff	16 at    0.56760    0.94500    0.07030   -2.74660    1.48770   -0.89550  111.27000  104.50000  # c1,c,oc,c1
dihedral_coeff	17 at    0.00000    0.00000    0.00000    0.00000    0.00000    0.00000  111.27000  102.96950  # c1,c,oc,cp
dihedral_coeff	18 at    0.00000    0.00000    0.00000    0.00000    0.00000    0.00000  111.27000  109.00000  # c1,c,oh,h
dihedral_coeff	19 at   -1.82340    1.63930    0.51440   -0.77770    0.43400   -0.66530  104.50000  108.72800  # c1,oc,c,hc
dihedral_coeff	20 at    0.00000    0.00000    0.00000    0.00000    0.00000    0.00000  111.27000  102.96950  # c3h,c,oc,cp
dihedral_coeff	21 at   -1.82340    1.63930    0.51440   -0.77770    0.43400   -0.66530  104.50000  108.72800  # c3h,o3e,c,hc
dihedral_coeff	22 at    1.97670    1.02390    0.00000    1.97670    1.02390    0.00000  118.90000  118.90000  # cp,cp,cp,cp
dihedral_coeff	23 at    0.00000    2.50140    0.00000    0.00000    2.71470    0.00000  118.90000  117.94000  # cp,cp,cp,hc
dihedral_coeff	24 at    0.00000   10.01550    0.00000    0.00000    1.74040    0.00000  118.90000  123.42000  # cp,cp,cp,oc
dihedral_coeff	25 at    0.00000    0.00000    0.00000    0.00000    0.00000    0.00000  102.96950  108.72800  # cp,oc,c,hc
dihedral_coeff	26 at    0.00000    0.00000    0.00000    0.00000    0.00000    0.00000  109.00000  108.72800  # h,oh,c,hc
dihedral_coeff	27 at   -0.80850    0.55690   -0.24660   -0.80850    0.55690   -0.24660  110.77000  110.77000  # hc,c,c,hc
dihedral_coeff	28 at   -0.18920    0.49180    0.72730    2.36680    2.49200   -1.01220  110.77000  111.27000  # hc,c,c,oc
dihedral_coeff	29 at   -0.80850    0.55690   -0.24660   -0.80850    0.55690   -0.24660  110.77000  110.77000  # hc,c,c1,hc
dihedral_coeff	30 at   -0.18920    0.49180    0.72730    2.36680    2.49200   -1.01220  110.77000  111.27000  # hc,c,c1,oc
dihedral_coeff	31 at   -0.80850    0.55690   -0.24660   -0.80850    0.55690   -0.24660  110.77000  110.77000  # hc,c,c3h,hc
dihedral_coeff	32 at    2.36680    2.49200   -1.01220   -0.18920    0.49180    0.72730  110.77000  111.27000  # hc,c,c3h,o3e
dihedral_coeff	33 at   -0.18920    0.49180    0.72730    2.36680    2.49200   -1.01220  110.77000  111.27000  # hc,c1,c,oc
dihedral_coeff	34 at    2.36680    2.49200   -1.01220   -0.18920    0.49180    0.72730  110.77000  111.27000  # hc,c1,c,oh
dihedral_coeff	35 at    2.36680    2.49200   -1.01220   -0.18920    0.49180    0.72730  110.77000  111.27000  # hc,c3h,c,o3e
dihedral_coeff	36 at   -0.18920    0.49180    0.72730    2.36680    2.49200   -1.01220  110.77000  111.27000  # hc,c3h,c,oc
dihedral_coeff	37 at    0.00000    2.45010    0.00000    0.00000    2.45010    0.00000  117.94000  117.94000  # hc,cp,cp,hc
dihedral_coeff	38 at    0.00000    2.57060    0.00000    0.00000    1.87290    0.00000  117.94000  123.42000  # hc,cp,cp,oc
dihedral_coeff	39 at    0.55110    0.97370   -0.66730    0.55110    0.97370   -0.66730  111.27000  111.27000  # o3e,c3h,c,oc
dihedral_coeff	40 at    0.55110    0.97370   -0.66730    0.55110    0.97370   -0.66730  111.27000  111.27000  # oc,c,c1,oc
dihedral_coeff	41 at    0.55110    0.97370   -0.66730    0.55110    0.97370   -0.66730  111.27000  111.27000  # oc,c1,c,oh

# AngleAngleTorsion Coeffs

dihedral_coeff	 1 aat  -16.16400  112.67000  110.77000  # c,c,c,hc
dihedral_coeff	 2 aat  -29.04200  112.67000  111.27000  # c,c,c,oc
dihedral_coeff	 3 aat  -19.00590  111.27000  104.50000  # c,c,oc,c1
dihedral_coeff	 4 aat    0.00000  111.27000  102.96950  # c,c,oc,cp
dihedral_coeff	 5 aat  -16.16400  112.67000  110.77000  # c,c1,c,hc
dihedral_coeff	 6 aat  -29.04200  112.67000  111.27000  # c,c1,c,oc
dihedral_coeff	 7 aat  -29.04200  112.67000  111.27000  # c,c1,c,oh
dihedral_coeff	 8 aat  -19.00590  111.27000  104.50000  # c,c1,oc,c
dihedral_coeff	 9 aat  -16.16400  112.67000  110.77000  # c,c3h,c,hc
dihedral_coeff	10 aat  -29.04200  112.67000  111.27000  # c,c3h,c,o3e
dihedral_coeff	11 aat  -29.04200  112.67000  111.27000  # c,c3h,c,oc
dihedral_coeff	12 aat  -19.00590  111.27000  104.50000  # c,c3h,o3e,c
dihedral_coeff	13 aat  -16.44380  104.50000  108.72800  # c,o3e,c3h,hc
dihedral_coeff	14 aat  -16.44380  104.50000  108.72800  # c,oc,c1,hc
dihedral_coeff	15 aat    0.00000  102.96950  123.42000  # c,oc,cp,cp
dihedral_coeff	16 aat  -19.00590  111.27000  104.50000  # c1,c,oc,c1
dihedral_coeff	17 aat    0.00000  111.27000  102.96950  # c1,c,oc,cp
dihedral_coeff	18 aat    0.00000  111.27000  109.00000  # c1,c,oh,h
dihedral_coeff	19 aat  -16.44380  104.50000  108.72800  # c1,oc,c,hc
dihedral_coeff	20 aat    0.00000  111.27000  102.96950  # c3h,c,oc,cp
dihedral_coeff	21 aat  -16.44380  104.50000  108.72800  # c3h,o3e,c,hc
dihedral_coeff	22 aat    0.00000  118.90000  118.90000  # cp,cp,cp,cp
dihedral_coeff	23 aat   -4.81410  118.90000  117.94000  # cp,cp,cp,hc
dihedral_coeff	24 aat  -21.02470  118.90000  123.42000  # cp,cp,cp,oc
dihedral_coeff	25 aat    0.00000  102.96950  108.72800  # cp,oc,c,hc
dihedral_coeff	26 aat    0.00000  109.00000  108.72800  # h,oh,c,hc
dihedral_coeff	27 aat  -12.56400  110.77000  110.77000  # hc,c,c,hc
dihedral_coeff	28 aat  -20.20060  110.77000  111.27000  # hc,c,c,oc
dihedral_coeff	29 aat  -12.56400  110.77000  110.77000  # hc,c,c1,hc
dihedral_coeff	30 aat  -20.20060  110.77000  111.27000  # hc,c,c1,oc
dihedral_coeff	31 aat  -12.56400  110.77000  110.77000  # hc,c,c3h,hc
dihedral_coeff	32 aat  -20.20060  110.77000  111.27000  # hc,c,c3h,o3e
dihedral_coeff	33 aat  -20.20060  110.77000  111.27000  # hc,c1,c,oc
dihedral_coeff	34 aat  -20.20060  110.77000  111.27000  # hc,c1,c,oh
dihedral_coeff	35 aat  -20.20060  110.77000  111.27000  # hc,c3h,c,o3e
dihedral_coeff	36 aat  -20.20060  110.77000  111.27000  # hc,c3h,c,oc
dihedral_coeff	37 aat    0.35980  117.94000  117.94000  # hc,cp,cp,hc
dihedral_coeff	38 aat    4.22960  117.94000  123.42000  # hc,cp,cp,oc
dihedral_coeff	39 aat  -14.04840  111.27000  111.27000  # o3e,c3h,c,oc
dihedral_coeff	40 aat  -14.04840  111.27000  111.27000  # oc,c,c1,oc
dihedral_coeff	41 aat  -14.04840  111.27000  111.27000  # oc,c1,c,oh

# BondBond13 Coeffs

dihedral_coeff	 1 bb13    0.00000    1.53000    1.10100  # c,c,c,hc
dihedral_coeff	 2 bb13    0.00000    1.53000    1.42000  # c,c,c,oc
dihedral_coeff	 3 bb13    0.00000    1.53000    1.42000  # c,c,oc,c1
dihedral_coeff	 4 bb13    0.00000    1.53000    1.37680  # c,c,oc,cp
dihedral_coeff	 5 bb13    0.00000    1.53000    1.10100  # c,c1,c,hc
dihedral_coeff	 6 bb13    0.00000    1.53000    1.42000  # c,c1,c,oc
dihedral_coeff	 7 bb13    0.00000    1.53000    1.42000  # c,c1,c,oh
dihedral_coeff	 8 bb13    0.00000    1.53000    1.42000  # c,c1,oc,c
dihedral_coeff	 9 bb13    0.00000    1.53000    1.10100  # c,c3h,c,hc
dihedral_coeff	10 bb13    0.00000    1.53000    1.42000  # c,c3h,c,o3e
dihedral_coeff	11 bb13    0.00000    1.53000    1.42000  # c,c3h,c,oc
dihedral_coeff	12 bb13    0.00000    1.53000    1.42000  # c,c3h,o3e,c
dihedral_coeff	13 bb13    0.00000    1.42000    1.10100  # c,o3e,c3h,hc
dihedral_coeff	14 bb13    0.00000    1.42000    1.10100  # c,oc,c1,hc
dihedral_coeff	15 bb13    0.00000    1.42000    1.41700  # c,oc,cp,cp
dihedral_coeff	16 bb13    0.00000    1.53000    1.42000  # c1,c,oc,c1
dihedral_coeff	17 bb13    0.00000    1.53000    1.37680  # c1,c,oc,cp
dihedral_coeff	18 bb13    0.00000    1.53000    0.96000  # c1,c,oh,h
dihedral_coeff	19 bb13    0.00000    1.42000    1.10100  # c1,oc,c,hc
dihedral_coeff	20 bb13    0.00000    1.53000    1.37680  # c3h,c,oc,cp
dihedral_coeff	21 bb13    0.00000    1.42000    1.10100  # c3h,o3e,c,hc
dihedral_coeff	22 bb13   53.00000    1.41700    1.41700  # cp,cp,cp,cp
dihedral_coeff	23 bb13   -6.27410    1.41700    1.09820  # cp,cp,cp,hc
dihedral_coeff	24 bb13   -2.24360    1.41700    1.37680  # cp,cp,cp,oc
dihedral_coeff	25 bb13    0.00000    1.37680    1.10100  # cp,oc,c,hc
dihedral_coeff	26 bb13    0.00000    0.96000    1.10100  # h,oh,c,hc
dihedral_coeff	27 bb13    0.00000    1.10100    1.10100  # hc,c,c,hc
dihedral_coeff	28 bb13    0.00000    1.10100    1.42000  # hc,c,c,oc
dihedral_coeff	29 bb13    0.00000    1.10100    1.10100  # hc,c,c1,hc
dihedral_coeff	30 bb13    0.00000    1.10100    1.42000  # hc,c,c1,oc
dihedral_coeff	31 bb13    0.00000    1.10100    1.10100  # hc,c,c3h,hc
dihedral_coeff	32 bb13    0.00000    1.10100    1.42000  # hc,c,c3h,o3e
dihedral_coeff	33 bb13    0.00000    1.10100    1.42000  # hc,c1,c,oc
dihedral_coeff	34 bb13    0.00000    1.10100    1.42000  # hc,c1,c,oh
dihedral_coeff	35 bb13    0.00000    1.10100    1.42000  # hc,c3h,c,o3e
dihedral_coeff	36 bb13    0.00000    1.10100    1.42000  # hc,c3h,c,oc
dihedral_coeff	37 bb13   -1.70770    1.09820    1.09820  # hc,cp,cp,hc
dihedral_coeff	38 bb13    2.05170    1.09820    1.37680  # hc,cp,cp,oc
dihedral_coeff	39 bb13    0.00000    1.42000    1.42000  # o3e,c3h,c,oc
dihedral_coeff	40 bb13    0.00000    1.42000    1.42000  # oc,c,c1,oc
dihedral_coeff	41 bb13    0.00000    1.42000    1.42000  # oc,c1,c,oh

# Improper Coeffs

improper_coeff	 1    0.00000    0.00000  # c,c,c,hc
improper_coeff	 2    0.00000    0.00000  # c,c,hc,hc
improper_coeff	 3    0.00000    0.00000  # c,c,hc,oc
improper_coeff	 4    0.00000    0.00000  # c,c,oc,hc
improper_coeff	 5    0.00000    0.00000  # c,c1,hc,hc
improper_coeff	 6    0.00000    0.00000  # c,c1,hc,oc
improper_coeff	 7    0.00000    0.00000  # c,c1,hc,oh
improper_coeff	 8    0.00000    0.00000  # c,c1,oc,hc
improper_coeff	 9    0.00000    0.00000  # c,c3h,hc,hc
improper_coeff	10    0.00000    0.00000  # c,c3h,hc,oc
improper_coeff	11    0.00000    0.00000  # c,c3h,o3e,hc
improper_coeff	12    0.00000    0.00000  # c,hc,hc,o3e
improper_coeff	13    0.00000    0.00000  # c,hc,hc,oc
improper_coeff	14    0.00000    0.00000  # c,hc,hc,oh
improper_coeff	15    0.00000    0.00000  # c1,c,c,hc
improper_coeff	16    0.00000    0.00000  # c1,c,c,oc
improper_coeff	17    0.00000    0.00000  # c1,c,oc,hc
improper_coeff	18    0.00000    0.00000  # c3h,c,c,hc
improper_coeff	19    0.00000    0.00000  # c3h,c,c,o3e
improper_coeff	20    0.00000    0.00000  # c3h,c,o3e,hc
improper_coeff	21    4.89120    0.00000  # cp,cp,cp,hc
improper_coeff	22   13.04210    0.00000  # cp,cp,cp,oc

# AngleAngle Coeffs

improper_coeff	 1 aa   -1.31990   -1.31990    0.11840  112.67000  110.77000  110.77000  # c,c,c,hc
improper_coeff	 2 aa    0.27380   -0.48250    0.27380  110.77000  110.77000  107.66000  # c,c,hc,hc
improper_coeff	 3 aa    0.00000    0.00000    0.16890  110.77000  111.27000  108.72800  # c,c,hc,oc
improper_coeff	 4 aa    0.16890    0.00000    0.00000  111.27000  110.77000  108.72800  # c,c,oc,hc
improper_coeff	 5 aa    0.00000   -0.48250    0.00000  110.77000  110.77000  107.66000  # c,c1,hc,hc
improper_coeff	 6 aa    0.00000    0.00000    0.00000  110.77000  111.27000  108.72800  # c,c1,hc,oc
improper_coeff	 7 aa    0.00000    2.59260    0.00000  110.77000  111.27000  108.72800  # c,c1,hc,oh
improper_coeff	 8 aa    0.00000    0.00000    0.00000  111.27000  110.77000  108.72800  # c,c1,oc,hc
improper_coeff	 9 aa    0.00000   -0.48250    0.00000  110.77000  110.77000  107.66000  # c,c3h,hc,hc
improper_coeff	10 aa    0.00000    0.00000    0.00000  110.77000  111.27000  108.72800  # c,c3h,hc,oc
improper_coeff	11 aa    0.00000    2.59260    3.91770  111.27000  110.77000  108.72800  # c,c3h,o3e,hc
improper_coeff	12 aa    2.42590    2.42590    2.12830  107.66000  108.72800  108.72800  # c,hc,hc,o3e
improper_coeff	13 aa    0.00000    0.00000    2.12830  107.66000  108.72800  108.72800  # c,hc,hc,oc
improper_coeff	14 aa    2.42590    2.42590    2.12830  107.66000  108.72800  108.72800  # c,hc,hc,oh
improper_coeff	15 aa   -1.31990   -1.31990    0.11840  112.67000  110.77000  110.77000  # c1,c,c,hc
improper_coeff	16 aa    0.00000    0.00000   -3.57440  112.67000  111.27000  111.27000  # c1,c,c,oc
improper_coeff	17 aa    0.16890    0.00000    0.00000  111.27000  110.77000  108.72800  # c1,c,oc,hc
improper_coeff	18 aa   -1.31990   -1.31990    0.11840  112.67000  110.77000  110.77000  # c3h,c,c,hc
improper_coeff	19 aa   -0.83300   -0.83300   -3.57440  112.67000  111.27000  111.27000  # c3h,c,c,o3e
improper_coeff	20 aa    0.16890    2.59260    3.91770  111.27000  110.77000  108.72800  # c3h,c,o3e,hc
improper_coeff	21 aa    0.00000    0.00000    0.00000  118.90000  117.94000  117.94000  # cp,cp,cp,hc
improper_coeff	22 aa    0.00000    0.00000    0.00000  118.90000  123.42000  123.42000  # cp,cp,cp,oc

# ------------------------------- OPT Section -------------------------------
minimize 1.0e-5 1.0e-7 100000 400000
PPPM initialization ...
  using 12-bit tables for long-range coulomb (../kspace.cpp:342)
  G vector (1/distance) = 0.19677283
  grid = 8 8 8
  stencil order = 5
  estimated absolute RMS force accuracy = 0.026522975
  estimated relative force accuracy = 7.987315e-05
  using double precision KISS FFT
  3d grid and FFT values/proc = 1053 128
Generated 36 of 36 mixed pair_coeff terms from sixthpower/geometric mixing rule
Neighbor list info ...
  update: every = 1 steps, delay = 0 steps, check = yes
  max neighbors/atom: 2000, page size: 100000
  master list distance cutoff = 12
  ghost atom cutoff = 12
  binsize = 6, bins = 6 6 6
  1 neighbor lists, perpetual/occasional/extra = 1 0 0
  (1) pair lj/class2/coul/long, perpetual
      attributes: half, newton on
      pair build: half/bin/newton
      stencil: half/bin/3d
      bin: standard
WARNING: Inconsistent image flags (../domain.cpp:815)
Per MPI rank memory allocation (min/avg/max) = 17.25 | 17.25 | 17.26 Mbytes
   Step          Temp          E_pair         E_mol          TotEng         Press     
         0   492.84444     -2027.0191      17840.758      20213.62       4201.3622    
       444   492.84444     -2613.5187      13942.352      15728.715      4044.559     
Loop time of 5.22283 on 6 procs for 444 steps with 2996 atoms

98.8% CPU use with 6 MPI tasks x no OpenMP threads

Minimization stats:
  Stopping criterion = energy tolerance
  Energy initial, next-to-last, final = 
      15813.7384684871   11328.9193353187   11328.8329850059
  Force two-norm initial, final = 2360.5253 18.769481
  Force max component initial, final = 132.58837 1.6220871
  Final line search alpha, max atom move = 0.0077922296 0.012639675
  Iterations, force evaluations = 444 888

MPI task timing breakdown:
Section |  min time  |  avg time  |  max time  |%varavg| %total
---------------------------------------------------------------
Pair    | 2.4579     | 2.6546     | 2.9023     |   8.4 | 50.83
Bond    | 0.93897    | 1.3112     | 1.6306     |  19.5 | 25.11
Kspace  | 0.46949    | 1.035      | 1.3596     |  29.0 | 19.82
Neigh   | 0.041011   | 0.041036   | 0.04106    |   0.0 |  0.79
Comm    | 0.13984    | 0.14459    | 0.15081    |   1.1 |  2.77
Output  | 0          | 0          | 0          |   0.0 |  0.00
Modify  | 0          | 0          | 0          |   0.0 |  0.00
Other   |            | 0.03635    |            |       |  0.70

Nlocal:        499.333 ave         517 max         486 min
Histogram: 1 2 0 0 0 1 0 0 1 1
Nghost:        6511.83 ave        6593 max        6469 min
Histogram: 1 2 1 0 0 1 0 0 0 1
Neighs:         163540 ave      175851 max      153002 min
Histogram: 1 0 0 1 2 0 1 0 0 1

Total # of neighbors = 981240
Ave neighs/atom = 327.51669
Ave special neighs/atom = 9.2870494
Neighbor list builds = 10
Dangerous builds = 0
# ------------------------------- Run Section -------------------------------
#
fix 		relax all npt temp 600.0 600.0 100 iso 1.0 1.0 1000
run 50000
PPPM initialization ...
  using 12-bit tables for long-range coulomb (../kspace.cpp:342)
  G vector (1/distance) = 0.19677283
  grid = 8 8 8
  stencil order = 5
  estimated absolute RMS force accuracy = 0.026522975
  estimated relative force accuracy = 7.987315e-05
  using double precision KISS FFT
  3d grid and FFT values/proc = 1053 128
Generated 36 of 36 mixed pair_coeff terms from sixthpower/geometric mixing rule
WARNING: Inconsistent image flags (../domain.cpp:815)
Per MPI rank memory allocation (min/avg/max) = 16.13 | 16.13 | 16.13 Mbytes
   Step          Temp          E_pair         E_mol          TotEng         Press          Volume    
       444   492.84444     -2613.5187      13942.352      15728.715      4044.559       33060.56     
     50444   591.69518     -1501.5305      18970.052      22750.895      505.68346      48226.76     
Loop time of 212.237 on 6 procs for 50000 steps with 2996 atoms

Performance: 20.355 ns/day, 1.179 hours/ns, 235.586 timesteps/s, 705.815 katom-step/s
98.7% CPU use with 6 MPI tasks x no OpenMP threads

MPI task timing breakdown:
Section |  min time  |  avg time  |  max time  |%varavg| %total
---------------------------------------------------------------
Pair    | 67.744     | 72.849     | 77.755     |  43.1 | 34.32
Bond    | 45.521     | 63.36      | 71.795     | 107.2 | 29.85
Kspace  | 40.555     | 54.012     | 77.015     | 160.8 | 25.45
Neigh   | 10.653     | 10.666     | 10.683     |   0.4 |  5.03
Comm    | 6.7906     | 7.1821     | 7.5379     |   8.5 |  3.38
Output  | 2.687e-05  | 5.8857e-05 | 0.00021736 |   0.0 |  0.00
Modify  | 2.3411     | 2.609      | 3.0322     |  16.8 |  1.23
Other   |            | 1.559      |            |       |  0.73

Nlocal:        499.333 ave         537 max         460 min
Histogram: 1 1 1 0 0 0 0 0 1 2
Nghost:        5313.33 ave        5382 max        5242 min
Histogram: 1 0 1 1 0 1 0 0 0 2
Neighs:         112803 ave      126391 max       98027 min
Histogram: 1 1 0 1 0 0 1 0 1 1

Total # of neighbors = 676816
Ave neighs/atom = 225.90654
Ave special neighs/atom = 9.2870494
Neighbor list builds = 3344
Dangerous builds = 0
unfix relax

reset_timestep 0

timestep 0.5
thermo_style custom step temp pe evdwl ecoul ebond eangle edihed eimp density vol
thermo          100

neigh_modify delay 0 every 1 check yes

fix 		relax all npt temp 600.0 100.0 100 iso 1.0 1.0 1000

variable Rho equal density
dump DumpPos all custom 1000 dump.pos id type x y z mol

run 5000000
PPPM initialization ...
  using 12-bit tables for long-range coulomb (../kspace.cpp:342)
  G vector (1/distance) = 0.19599685
  grid = 9 9 9
  stencil order = 5
  estimated absolute RMS force accuracy = 0.022642673
  estimated relative force accuracy = 6.8187738e-05
  using double precision KISS FFT
  3d grid and FFT values/proc = 1120 162
Generated 36 of 36 mixed pair_coeff terms from sixthpower/geometric mixing rule
WARNING: Inconsistent image flags (../domain.cpp:815)
Per MPI rank memory allocation (min/avg/max) = 17.4 | 17.41 | 17.41 Mbytes
   Step          Temp          PotEng         E_vdwl         E_coul         E_bond        E_angle        E_dihed        E_impro        Density         Volume    
         0   591.69518      17470.339     -1173.3299      1214.2585      2442.7403      16219.379      243.99446      63.937942      0.73475979     48226.76     
       100   600.41714      17381.275     -1121.6173      1208.1792      2344.5228      16228.337      190.87713      71.081735      0.73489946     48217.594    
       200   599.51038      17355.269     -1134.0863      1220.8933      2341.4765      16210.858      191.20036      67.565579      0.73489023     48218.2      
       300   600.90248      17263.818     -1153.9563      1205.0036      2331.9718      16218.701      151.42316      54.076946      0.73455028     48240.515    
       400   600.81386      17154.653     -1138.0036      1209.6014      2200.2844      16175.296      189.18723      63.648863      0.73403105     48274.639    
       500   587.76117      17205.275     -1193.6393      1223.9458      2263.7767      16175.714      213.13951      66.08028       0.73370195     48296.293    
       600   584.25619      17237.036     -1156.4803      1214.9951      2451.0466      16116.477      103.79232      51.600615      0.73364356     48300.136    
       700   596.98454      17158.437     -1102.449       1209.9097      2307.234       16098.12       135.97165      54.625035      0.73382388     48288.268    
       800   591.41657      17255.02      -1136.8674      1222.695       2284.0053      16170.628      175.27425      82.621575      0.73368659     48297.304    
       900   580.63146      17402.305     -1126.7871      1211.691       2348.9711      16200.305      240.77985      70.764869      0.73372178     48294.988    
      1000   597.83384      17300.139     -1125.417       1212.6756      2273.4894      16099.749      320.65014      61.99566       0.73352202     48308.139    
      1100   602.25005      17290.003     -1162.6311      1206.9645      2263.6624      16119.689      347.70251      56.301502      0.73277532     48357.366    
      1200   608.67174      17246.876     -1170.3559      1220.7045      2327.0353      16072.857      277.73449      57.893537      0.73184363     48418.928    
      1300   597.99728      17341.132     -1128.6282      1217.492       2347.2144      16143.161      230.48804      70.777247      0.73084458     48485.116    
      1400   600.69374      17305.702     -1091.5664      1215.9367      2243.0771      16188.821      227.7996       62.133285      0.72986366     48550.279    
      1500   600.62207      17305.742     -1137.4482      1222.411       2282.3946      16079.219      355.26177      45.489071      0.72888858     48615.227    
      1600   597.64038      17327.688     -1094.7672      1203.5977      2408.4924      16128.892      158.57977      65.718267      0.72741764     48713.534    
      1700   595.13137      17354.671     -1094.7639      1203.83        2307.247       16120.593      278.41894      81.754198      0.72547082     48844.258    
      1800   585.4111       17458.385     -1126.8536      1199.7124      2296.7908      16164.718      396.24513      70.366848      0.7234581      48980.147    
      1900   599.36955      17375.645     -1116.5655      1209.3866      2306.1403      16151.845      313.66621      53.135773      0.72137514     49121.576    
      2000   613.16466      17306.906     -1140.0212      1211.1722      2373.3202      16072.301      255.43468      77.180523      0.71896081     49286.531    
      2100   601.15193      17460.711     -1114.5113      1217.0084      2351.373       16161.297      314.87484      73.318838      0.71658134     49450.191    
      2200   606.29411      17441.316     -1105.0599      1212.4294      2272.8809      16181.863      337.70524      84.783528      0.7145072      49593.74     
      2300   611.16238      17406.307     -1115.1333      1211.3749      2434.001       16175.571      176.46354      66.290556      0.71253395     49731.082    
      2400   611.52249      17364.246     -1128.7757      1218.2358      2320.4736      16176.863      258.51466      61.445125      0.71109732     49831.553    
      2500   602.66786      17339.999     -1063.4866      1223.2674      2295.5002      16139.05       209.15546      77.410148      0.71018601     49895.497    
      2600   595.01784      17309.118     -1105.817       1218.1349      2280.2226      16213.761      180.88123      63.349839      0.70918004     49966.273    
      2700   585.64581      17356.994     -1100.8806      1209.9371      2364.7588      16152.206      190.30349      81.219864      0.70840742     50020.769    
      2800   585.20927      17366.096     -1094.3199      1208.92        2249.4265      16180.806      289.98026      71.544054      0.70812545     50040.687    
      2900   592.16427      17343.555     -1093.2797      1212.0326      2300.4114      16187.931      214.53464      57.603904      0.70789771     50056.786    
      3000   603.2823       17296.706     -1094.0181      1206.9481      2316.7904      16122.095      211.07571      71.676941      0.70771971     50069.375    
      3100   607.99998      17311.682     -1095.5037      1210.2538      2312.3674      16082.98       281.93889      57.363635      0.70752329     50083.276    
      3200   607.14756      17360.729     -1080.6352      1200.488       2426.8778      16058.087      231.07279      64.35021       0.70723164     50103.929    
      3300   605.65539      17387.21      -1086.4751      1210.1668      2314.5521      16134.815      289.63839      65.607996      0.70673448     50139.175    
      3400   612.09601      17324.582     -1087.9999      1217.8698      2339.0286      15992.184      339.09249      68.159692      0.70636927     50165.098    
      3500   597.39407      17437.618     -1068.2585      1215.8945      2297.6617      16265.171      211.47532      59.318048      0.70606981     50186.375    
      3600   605.42696      17357.203     -1061.2122      1216.6127      2272.4007      16194.984      204.2569       74.856754      0.70588353     50199.619    
      3700   600.48831      17398.431     -1046.8768      1214.2837      2348.6297      16066.214      302.98288      57.838774      0.70574039     50209.8      
      3800   595.38435      17433.423     -1083.4651      1212.74        2326.786       16235.64       211.69938      74.869111      0.70504018     50259.666    
      3900   605.62893      17315.167     -1124.5665      1222.8595      2314.2945      16148.128      228.18431      69.118058      0.70411264     50325.874    
      4000   586.19789      17437.131     -1060.5686      1221.0464      2359.8039      16194.501      194.10416      71.352873      0.70372739     50353.425    
      4100   599.35886      17232.463     -1108.2375      1211.4579      2300.8915      16130.153      183.54418      56.810826      0.70352089     50368.204    
      4200   586.97816      17241.21      -1078.0255      1221.5295      2346.7774      16098.693      133.23866      60.080289      0.70311285     50397.435    
      4300   583.24427      17243.768     -1104.8247      1216.4832      2336.6804      15986.357      291.07475      56.934324      0.70309587     50398.652    
      4400   590.05005      17219.417     -1073.0693      1207.9171      2316.1267      16074.643      170.80322      62.308587      0.70313888     50395.569    
      4500   597.44224      17243.015     -1106.4398      1216.5666      2280.6541      16129.868      213.65582      47.794648      0.7032529      50387.398    
      4600   599.28925      17301.94      -1108.7223      1209.2599      2313.0553      16063.226      284.67552      78.784302      0.70357989     50363.981    
      4700   599.49971      17335.076     -1030.3779      1203.1738      2292.5671      16139.907      219.6032       50.553862      0.70374491     50352.171    
      4800   592.59408      17431.887     -1046.5554      1206.4094      2304.5203      16197.425      256.67155      52.097621      0.70350818     50369.115    
      4900   590.80029      17485.338     -1085.3805      1203.7359      2450.0434      16152.106      235.51635      68.111843      0.70287198     50414.706    
      5000   600.26327      17420.886     -1134.4878      1211.1628      2415.0363      16230.233      162.69823      76.565524      0.70221014     50462.222    
      5100   612.0698       17321.773     -1104.0086      1205.2922      2345.2546      16110.511      242.11581      65.193127      0.70159182     50506.695    
      5200   603.68318      17383.347     -1048.9885      1202.7217      2268.0955      16143.682      308.02768      53.110502      0.70091376     50555.555    
      5300   600.11136      17372.776     -1077.413       1198.0681      2247.9495      16147.558      344.60972      56.979626      0.70022015     50605.633    
      5400   586.99867      17415.95      -1080.9039      1203.2876      2347.924       16166.28       247.79268      76.028123      0.69979211     50636.587    
      5500   592.83801      17292.522     -1050.5724      1198.3621      2280.8156      16094.181      242.41764      73.669986      0.69948272     50658.984    
      5600   588.28437      17276.874     -1085.357       1201.0174      2279.5242      16162.648      220.24965      43.439461      0.69926111     50675.039    
      5700   580.77112      17326.58      -1101.2522      1192.9577      2416.0141      16151.457      138.59165      72.754243      0.69957803     50652.082    
      5800   604.70472      17152.559     -1095.3931      1188.5683      2232.8154      16106.484      205.63988      56.876233      0.70044816     50589.16     
      5900   595.26428      17358.111     -1061.3773      1191.1428      2342.2897      16136.124      222.46551      68.814072      0.70172506     50497.105    
      6000   615.10697      17289.2       -1115.402       1199.3527      2275.1486      16160.972      258.39139      51.799025      0.70301346     50404.56     
      6100   606.50755      17391.185     -1089.493       1188.69        2267.2709      16259.348      234.43246      72.004257      0.70459215     50291.625    
      6200   599.07051      17451.731     -1079.0498      1192.6423      2342.2084      16149.288      331.83381      56.907121      0.70645804     50158.795    
      6300   615.44268      17282.283     -1084.3766      1191.4413      2307.1078      16186.188      165.5818       60.452182      0.70816387     50037.972    
      6400   604.49089      17322.991     -1108.161       1191.5909      2347.0706      16254.376      107.0144       73.917555      0.70960488     49936.359    
      6500   594.36932      17341.241     -1120.2165      1198.7838      2364.0773      16025.186      341.31757      74.378782      0.71110379     49831.1      
      6600   582.2341       17394.926     -1115.627       1205.512       2386.0269      16110.393      285.94539      65.425199      0.71282648     49710.673    
      6700   590.47078      17304.751     -1142.1067      1201.1635      2271.6558      16207.142      242.5814       65.142357      0.71396212     49631.602    
      6800   583.2163       17387.475     -1141.7235      1193.5081      2308.2561      16199.509      301.72899      67.052632      0.71496999     49561.639    
      6900   593.84444      17355.949     -1133.1548      1204.9764      2274.3223      16112.181      368.35951      70.864178      0.71609621     49483.692    
      7000   598.0863       17471.494     -1147.3617      1201.3083      2344.4691      16216.189      310.92498      88.058369      0.71784046     49363.453    
      7100   602.69405      17519.393     -1104.7705      1203.9478      2349.7547      16163.726      363.645        86.250325      0.7196124      49241.903    
      7200   604.35491      17496.712     -1153.143       1224.8922      2416.077       16244.037      251.50534      56.089804      0.72110848     49139.741    
      7300   611.45685      17388.385     -1108.6472      1217.9673      2298.6927      16174.363      284.04317      66.507641      0.72268715     49032.398    
      7400   599.04506      17421.85      -1102.7747      1225.8419      2339.8124      16098.811      338.50643      65.211605      0.72420127     48929.884    
      7500   615.06464      17198.037     -1147.5585      1213.1645      2299.3632      16001.533      297.27592      78.605858      0.72528793     48856.575    
      7600   607.42535      17205.871     -1148.4371      1218.0701      2318.8318      16100.715      195.12271      65.748196      0.72680089     48754.872    
      7700   605.01397      17185.231     -1159.0051      1223.0251      2222.0114      16111.667      282.54354      48.037328      0.728633       48632.28     
      7800   592.9232       17264.78      -1110.0196      1222.8343      2277.4983      16154.93       207.07708      54.464684      0.73009935     48534.606    
      7900   589.78051      17290.149     -1096.0219      1206.1164      2375.2711      15967.552      295.93629      80.909171      0.73118804     48462.341    
      8000   595.39054      17277.312     -1135.1194      1201.742       2366.9837      16050.394      269.72613      64.192432      0.73207384     48403.702    
      8100   607.35841      17269.312     -1105.641       1203.4626      2324.2408      16055.757      262.19403      68.125847      0.73261451     48367.98     
      8200   620.21582      17267.631     -1134.2806      1205.919       2248.3301      16130.755      279.49283      80.127975      0.73254381     48372.648    
      8300   611.29572      17386.59      -1162.4954      1189.7263      2359.3564      16235.771      227.55418      76.629482      0.73206969     48403.977    
      8400   607.49486      17396.033     -1144.3461      1190.8913      2266.1819      16241.989      312.60619      67.030173      0.73189007     48415.856    
      8500   599.43527      17407         -1167.2437      1201.2763      2372.9765      16180.725      289.95463      68.634938      0.73183172     48419.716    
      8600   604.50847      17293.616     -1163.4795      1211.608       2344.6363      16051.503      336.15077      52.858099      0.73181955     48420.521    
      8700   597.93213      17301.218     -1133.6504      1212.9393      2360.979       16132.648      195.27686      72.472328      0.73211375     48401.063    
      8800   608.61039      17163.778     -1150.7034      1212.6407      2274.8341      16028.612      286.05576      54.502463      0.73250361     48375.303    
      8900   598.77008      17221.307     -1127.3132      1208.0446      2348.5444      16049.066      224.25949      58.971578      0.7327023      48362.185    
      9000   593.56945      17253.527     -1122.4311      1212.2854      2347.5054      16042.09       252.59395      61.051196      0.73230164     48388.645    
      9100   600.15294      17202.27      -1134.1846      1205.5164      2217.9197      16126.925      252.95262      73.57585       0.73152009     48440.343    
      9200   603.47503      17214.559     -1159.2988      1217.6255      2186.9538      16178.927      260.34636      70.166522      0.73044214     48511.829    
      9300   595.07475      17398.068     -1139.5085      1211.8611      2362.2906      16118.694      298.94937      85.898889      0.72929208     48588.33     
      9400   616.58594      17307.313     -1156.6346      1204.303       2343.5869      16137.059      250.64905      70.524548      0.72807791     48669.358    
      9500   615.81431      17321.23      -1160.892       1204.8244      2332.1439      16137.69       285.75252      64.816125      0.72684759     48751.739    
      9600   603.54931      17385.511     -1099.8321      1213.7126      2331.5339      16120.085      291.78686      70.964843      0.72600731     48808.164    
      9700   607.81081      17292.707     -1126.7014      1230.0462      2391.7029      16064.185      209.91678      66.854963      0.72476687     48891.699    
      9800   595.23618      17351.449     -1153.9432      1235.9399      2404.5691      16051.324      286.57033      67.389541      0.72325837     48993.673    
      9900   594.85279      17318.892     -1125.6536      1226.3986      2284.6873      16148.694      264.29817      61.515856      0.72190547     49085.49     
     10000   597.66222      17279.159     -1148.4488      1218.5698      2321.3055      16170.526      187.3188       69.725463      0.72034381     49191.905    
     10100   597.67726      17275.615     -1106.2953      1211.9182      2300.9768      16164.433      169.78669      74.1109        0.71881803     49296.32     
     10200   601.81366      17248.581     -1129.7591      1213.1454      2373.7594      16043.031      228.91938      57.753722      0.71710455     49414.112    
     10300   605.46495      17230.709     -1113.3434      1212.099       2324.7187      16098.615      173.49788      75.368374      0.71531672     49537.614    
     10400   595.8051       17335.558     -1090.0663      1213.0899      2312.7029      16091.6        264.80795      84.000565      0.71343111     49668.543    
     10500   597.61631      17372.888     -1108.9675      1216.6388      2311.6846      16210.48       224.19128      58.829885      0.71135427     49813.554    
     10600   610.78297      17361.334     -1101.624       1214.2931      2362.2401      16123.157      215.34038      87.45628       0.7095753      49938.441    
     10700   611.88841      17419.594     -1098.498       1205.5856      2401.452       16056.165      319.65324      74.228297      0.70767582     50072.481    
     10800   623.32527      17309.113     -1101.9047      1212.1158      2338.5649      16040.308      296.02541      64.285079      0.70551266     50226.008    
     10900   609.87922      17358.475     -1092.485       1206.5992      2313.9564      16103.126      304.72331      63.87364       0.70348001     50371.132    
     11000   598.0917       17365.029     -1065.1036      1199.4649      2316.2018      16174.64       202.46611      79.539149      0.70164786     50502.661    
     11100   604.75922      17241.148     -1070.8192      1200.1232      2301.9145      16130.035      158.29945      63.404034      0.69965827     50646.274    
     11200   591.01413      17344.398     -1076.8106      1197.0584      2319.8454      16117.925      262.69342      64.341203      0.69766328     50791.098    
     11300   588.11074      17370.535     -1047.6962      1212.6723      2284.3746      16148.212      233.24308      79.918502      0.69551146     50948.239    
     11400   593.7601       17348.32      -1103.0925      1214.5227      2283.7709      16086.49       339.13664      66.754386      0.69315783     51121.234    
     11500   596.08125      17375.493     -1071.7562      1213.0633      2306.6889      16071.261      313.55731      82.36423       0.69120281     51265.828    
     11600   604.69371      17357.029     -1076.1517      1210.0104      2233.0678      16204.513      245.79318      79.510942      0.68950072     51392.382    
     11700   595.69266      17503.805     -1048.9322      1215.5118      2384.3359      16187.821      222.96532      81.280724      0.68783675     51516.707    
     11800   602.44267      17504.804     -1050.3806      1214.5432      2381.3976      16276.875      150.37425      70.381204      0.6866806      51603.444    
     11900   620.94141      17409.204     -1036.3039      1218.6727      2335.8315      16088.254      288.83757      53.380884      0.68552282     51690.598    
     12000   603.9183       17637.776     -1049.6275      1214.4638      2477.799       16197.119      258.30004      78.299798      0.68484705     51741.603    
     12100   618.06393      17565.03      -1036.3684      1219.0196      2481.789       16177.961      193.263        68.855287      0.68422835     51788.39     
     12200   620.04259      17517.176     -1064.8635      1210.7061      2306.4802      16167.868      364.6787       71.754511      0.68372484     51826.527    
     12300   608.57862      17497.543     -1029.4976      1213.7863      2401.1776      16192.447      186.44381      71.62243       0.68347968     51845.117    
     12400   598.76694      17475.597     -1073.2829      1215.2272      2339.6034      16159.277      311.50234      62.987006      0.68311472     51872.816    
     12500   605.40501      17355.169     -1077.4138      1215.4455      2351.4884      16024.127      304.56863      74.67961       0.6829322      51886.68     
     12600   586.28059      17489.273     -1055.4389      1225.2381      2383.7087      15970.235      436.9762       64.293434      0.68303033     51879.225    
     12700   600.44584      17342.201     -1072.2781      1217.524       2293.5956      16111.099      271.73372      57.175335      0.68297929     51883.102    
     12800   585.96416      17456.82      -1060.8273      1218.488       2325.1957      16157.925      286.79778      67.613503      0.68280713     51896.184    
     12900   588.97277      17436.524     -1039.8985      1209.8175      2311.5681      16112.418      313.96245      68.460294      0.68265367     51907.85     
     13000   591.22993      17435.721     -1075.048       1211.1617      2427.7709      16162.703      182.70834      65.625149      0.68247782     51921.224    
     13100   599.59661      17403.558     -1031.6216      1209.4063      2397.6195      16138.639      159.08716      70.711029      0.68217772     51944.066    
     13200   602.89472      17437.68      -1049.0417      1217.593       2233.6083      16169.776      341.64334      66.565163      0.68195896     51960.728    
     13300   611.61397      17426.21      -1090.089       1212.861       2281.5664      16228.068      282.48677      52.797069      0.68176428     51975.565    
     13400   608.31837      17491.45      -1076.0757      1205.3144      2474.2639      16153.873      197.0173       78.714461      0.68206332     51952.778    
     13500   604.76118      17509.06      -1049.8516      1203.4491      2389.3793      16112.457      343.05118      50.684897      0.68252239     51917.834    
     13600   600.36034      17460.767     -1078.5977      1203.2076      2330.4991      16230.471      245.5598       67.231668      0.68275666     51900.019    
     13700   598.89811      17361.648     -1100.6364      1204.4699      2332.8629      16140.595      263.85719      56.546356      0.68303116     51879.162    
     13800   583.87344      17435.456     -1026.0761      1210.1148      2384.4842      16119.349      216.50262      66.768669      0.68340441     51850.828    
     13900   598.29134      17295.95      -1080.9876      1202.521       2326.7101      16103.643      219.14282      59.472397      0.6836028      51835.78     
     14000   587.70814      17405.958     -1076.3497      1198.2597      2324.1645      16172.544      257.02379      67.55235       0.68417193     51792.66     
     14100   585.65643      17458.978     -1043.5339      1200.5968      2374.0404      16116.845      291.68219      56.362408      0.68476153     51748.065    
     14200   597.92741      17394.955     -1062.844       1213.5908      2339.6845      16168.35       199.55969      73.454271      0.68529288     51707.941    
     14300   599.18573      17435.023     -1092.1398      1207.2446      2320.9343      16240.334      224.51913      72.919102      0.68598572     51655.717    
     14400   599.57395      17471.225     -1071.4304      1220.3689      2316.1962      16198.422      281.89274      62.620566      0.68700093     51579.383    
     14500   598.92679      17502.369     -1044.4313      1216.544       2360.7353      16250.86       186.09256      68.732762      0.68811151     51496.136    
     14600   617.35023      17366.701     -1079.7451      1215.7217      2330.709       16058.355      316.13694      64.557804      0.68900845     51429.099    
     14700   601.72658      17529.089     -1078.6149      1202.9019      2408.26        16194.213      278.01948      64.718295      0.68975825     51373.194    
     14800   611.08809      17433.271     -1039.8411      1207.0933      2334.3526      16136.039      274.5383       61.934167      0.69061799     51309.239    
     14900   608.06587      17400.801     -1056.3548      1212.2361      2340.8073      16120.462      260.48764      64.870043      0.69137794     51252.842    
     15000   598.67436      17401.882     -1068.8183      1196.0758      2394.9961      16083.938      266.54447      72.29093       0.69196356     51209.465    
     15100   588.54104      17408.846     -1073.3995      1211.6971      2328.1223      16169.681      259.05599      55.824842      0.69263732     51159.652    
     15200   578.79352      17434.797     -1045.7609      1203.4067      2392.6885      16160.284      195.98463      69.056856      0.69342906     51101.239    
     15300   586.7628       17330.8       -1063.2855      1216.6255      2357.5676      16066.863      234.54261      58.608413      0.69402082     51057.667    
     15400   584.84883      17354.096     -1077.5581      1215.6859      2346.146       16107.519      238.78556      63.988611      0.69464603     51011.713    
     15500   588.49372      17367.642     -1067.4511      1210.7638      2337.2555      16115.835      259.25147      52.587793      0.69516018     50973.985    
     15600   598.41766      17371.642     -1091.1782      1211.6736      2417.333       15998.92       305.24615      69.767176      0.69525785     50966.823    
     15700   608.59265      17362.289     -1084.7707      1207.3716      2313.2401      16079.947      326.38729      59.222346      0.69521602     50969.89     
     15800   602.25947      17454.699     -1099.2877      1207.6887      2295.4716      16242.21       291.40394      55.4174        0.69481908     50999.009    
     15900   597.04479      17500.489     -1095.8994      1203.9311      2383.3243      16174.008      308.24436      64.008172      0.69421256     51043.565    
     16000   612.22998      17337.737     -1083.9379      1209.2737      2297.1858      16096.611      287.70494      68.539717      0.69321257     51117.198    
     16100   591.41871      17497.35      -1039.97        1218.8314      2371.4228      16184.852      238.96389      59.573661      0.69206552     51201.921    
     16200   591.66953      17475.995     -1079.8223      1207.6259      2455.985       16044.773      322.25752      62.401666      0.69062983     51308.36     
     16300   599.63331      17392.293     -1065.4218      1210.7646      2339.255       16082.257      304.30387      59.357937      0.68891131     51436.351    
     16400   600.2821       17377.229     -1046.8022      1204.8137      2340.9564      16074.905      282.68164      59.208728      0.68695829     51582.584    
     16500   602.53707      17354.355     -1075.2706      1205.9232      2341.6763      16032.356      321.6839       66.942513      0.68479133     51745.813    
     16600   589.32533      17477.441     -1090.9643      1214.335       2368.7753      16134.954      307.77463      79.490754      0.68322737     51864.263    
     16700   605.35118      17333.347     -1083.7348      1210.7216      2403.1916      16068.526      217.30536      52.568068      0.68201817     51956.217    
     16800   596.2644       17396.88      -1045.1246      1207.8299      2342.8371      16082.789      273.1756       67.978741      0.68082778     52047.06     
     16900   596.42966      17371.72      -1090.777       1208.4721      2344.5884      16067.64       310.59668      62.904598      0.68001977     52108.903    
     17000   598.78776      17328.34      -1070.1476      1215.6399      2362.8141      16060.385      232.67134      58.675508      0.67936096     52159.436    
     17100   594.42851      17349.679     -1045.0776      1215.5043      2302.4927      16148.418      196.19851      66.100754      0.67874389     52206.856    
     17200   588.98756      17416.495     -1036.1014      1219.1062      2344.8657      16061.602      302.77635      59.346388      0.67822975     52246.431    
     17300   603.73603      17345.028     -1086.9175      1225.186       2304.0188      16163.795      212.00712      63.608758      0.67775791     52282.804    
     17400   598.67172      17475.666     -1040.3892      1225.6983      2318.6539      16227.169      210.30226      71.989661      0.67751475     52301.568    
     17500   611.09057      17425.226     -1066.6602      1230.2204      2328.369       16105.393      291.6249       73.323345      0.67729361     52318.645    
     17600   604.35583      17504.437     -1016.207       1221.6178      2322.4233      16117.103      324.8445       71.537814      0.67703171     52338.884    
     17700   614.57627      17400.93      -1059.3456      1226.1876      2307.5895      16198.488      212.52893      53.711406      0.67681351     52355.758    
     17800   601.54329      17459.468     -1040.7466      1211.1846      2365.8846      16121.138      276.24867      63.286201      0.67662425     52370.402    
     17900   608.17389      17293.455     -1051.3374      1213.1398      2331.5893      16058.865      219.01066      57.999695      0.67621336     52402.225    
     18000   595.1474       17321.989     -1017.178       1210.3399      2333.3507      16036.527      233.34591      62.974206      0.67586296     52429.392    
     18100   593.18226      17315.919     -1044.9021      1212.1226      2407.7535      15989.046      238.05223      53.434422      0.67566637     52444.647    
     18200   590.30847      17346.783     -1043.3518      1214.0868      2389.1265      15965.754      295.37839      64.840625      0.67568245     52443.399    
     18300   597.96251      17301.639     -1083.4707      1222.5146      2297.8042      16121.227      215.77679      67.607901      0.67575368     52437.87     
     18400   593.46417      17378.942     -1054.6342      1207.2088      2320.6567      16063.988      319.26453      62.285415      0.67592211     52424.804    
     18500   599.33199      17390.152     -1076.9653      1210.8379      2265.4714      16166.13       302.48183      62.733333      0.6764638      52382.823    
     18600   601.66204      17428.094     -1060.3507      1221.2973      2408.7079      16163.824      178.40991      57.565614      0.6773819      52311.826    
     18700   608.67342      17401.989     -1044.1689      1218.3466      2301.4276      16190.574      214.81544      64.098511      0.67841653     52232.047    
     18800   589.68634      17586.903     -1053.6359      1210.5452      2416.7231      16180.894      315.9749       58.635993      0.67960005     52141.085    
     18900   600.85357      17484.104     -1055.7527      1205.3618      2399.0524      16188.75       230.31282      60.382678      0.68052101     52070.521    
     19000   603.38784      17396.099     -1080.7204      1221.3742      2384.6582      16221.751      121.97922      69.641099      0.68134998     52007.17     
     19100   583.97427      17412.489     -1064.2328      1221.7762      2288.9833      16196.773      255.85131      57.181025      0.68255708     51915.195    
     19200   592.03017      17267.974     -1054.6573      1225.4737      2277.5161      16112.368      194.15696      55.591897      0.6838149      51819.701    
     19300   587.21282      17304.145     -1093.9601      1237.3919      2356.3344      16083.611      190.70403      71.494289      0.68503987     51727.039    
     19400   587.90783      17335.858     -1064.1834      1226.251       2265.304       16021.407      379.8394       48.183895      0.68671575     51600.803    
     19500   585.91228      17430.468     -1051.9184      1218.8212      2347.4823      16222.661      167.91693      66.348352      0.68841162     51473.686    
     19600   602.66122      17360.616     -1068.6929      1221.4671      2277.8227      16159.399      252.1211       59.231584      0.68960829     51384.365    
     19700   598.73438      17445.328     -1056.519       1212.6123      2370.5779      16166.518      219.71864      73.651638      0.6906797      51304.656    
     19800   607.19772      17387.445     -1035.3684      1208.8708      2284.8236      16147.692      249.38003      73.498035      0.69132938     51256.442    
     19900   608.97909      17355.856     -1099.3973      1208.1607      2332.3427      16161.639      231.95799      61.721177      0.69155167     51239.966    
     20000   600.97899      17373.038     -1046.1418      1214.675       2332.0587      16143.049      205.39104      63.995536      0.69187535     51215.994    
     20100   608.06465      17246.748     -1022.9193      1202.27        2250.077       16097.18       187.21887      70.450856      0.69232972     51182.382    
     20200   576.31031      17486.735     -1073.9014      1204.0793      2348.4399      16207.966      262.85732      74.451744      0.69215836     51195.053    
     20300   596.13495      17286.559     -1098.7053      1195.9245      2228.7294      16142.84       291.53293      64.475591      0.69158835     51237.248    
     20400   606.0055       17195.806     -1099.5858      1205.7203      2246.2513      16113.841      199.5004       68.166833      0.69100194     51280.73     
     20500   592.11569      17327.507     -1052.2222      1198.9224      2284.769       16092.984      283.66764      57.585666      0.69061209     51309.678    
     20600   593.17275      17330.147     -1087.9628      1205.2006      2286.4761      16098.707      294.37364      69.387601      0.68985754     51365.799    
     20700   596.88217      17322.695     -1038.2723      1202.1947      2244.3759      16123.279      244.65297      81.785378      0.68939679     51400.129    
     20800   594.61439      17385.283     -1035.6116      1197.353       2301.4738      16201.477      181.0598       74.829268      0.68904683     51426.235    
     20900   607.04351      17328.191     -1060.9417      1206.0336      2252.8637      16072.411      316.7498       77.208078      0.68823499     51486.897    
     21000   606.60351      17385.243     -1049.3512      1209.1248      2305.1421      16136.329      249.94858      70.848745      0.68709772     51572.117    
     21100   607.52024      17426.576     -1026.5843      1216.4475      2301.7616      16115.393      276.72831      81.621899      0.68605391     51650.583    
     21200   612.96898      17422.816     -1007.2649      1225.6807      2330.7365      16091.974      234.12679      85.733568      0.68526772     51709.84     
     21300   615.32944      17437.914     -1019.8193      1224.6945      2375.9174      16177.885      134.68835      81.521348      0.68438879     51776.249    
     21400   612.65913      17448.229     -1038.795       1232.1068      2422.1766      16124.724      186.78532      58.5154        0.68329078     51859.45     
     21500   600.59853      17470.059     -1045.9889      1226.3528      2330.6233      16144.268      257.45653      95.266977      0.682565       51914.593    
     21600   600.70341      17359.207     -1016.7168      1216.5325      2210.6019      16085.489      319.70775      82.148238      0.6820275      51955.506    
     21700   585.22008      17433.483     -1033.2975      1205.7992      2344.8789      16136.46       248.19599      72.513863      0.68135256     52006.972    
     21800   594.24358      17328.731     -1028.0091      1206.072       2207.7371      16205.689      203.98329      73.44353       0.68038834     52080.675    
     21900   591.56239      17367.328     -1039.8319      1203.0011      2229.5606      16125.37       327.58199      62.313367      0.67956336     52143.901    
     22000   603.12941      17305.568     -1032.6476      1203.0577      2359.9456      16074.076      167.76316      73.181938      0.67876023     52205.598    
     22100   612.42151      17285.729     -1014.8999      1219.5848      2233.325       16024.406      303.52518      60.607947      0.67794496     52268.379    
     22200   606.09336      17405.917     -1055.0886      1215.6219      2345.5629      16072.944      293.63389      73.552657      0.67692599     52347.058    
     22300   599.39742      17515.048     -1052.7124      1210.8666      2397.759       16191.831      235.99118      70.936425      0.67624071     52400.104    
     22400   609.65706      17464.287     -1029.0752      1219.2594      2408.5081      16090.418      247.60942      66.300052      0.67583762     52431.357    
     22500   603.95451      17543.551     -993.98014      1215.6352      2389.6329      16096.358      293.00247      79.228058      0.6754471      52461.672    
     22600   594.53719      17625.02      -1004.2717      1220.3137      2343.58        16275.047      257.74871      68.9587        0.67526583     52475.755    
     22700   613.68369      17419.479     -995.64025      1214.9167      2319.4212      16140.863      230.25992      49.611087      0.67528873     52473.975    
     22800   606.86529      17401.877     -1035.3161      1220.8708      2308.2336      16138.788      256.8482       51.600471      0.67518024     52482.407    
     22900   589.71687      17467.408     -997.443        1218.2705      2272.4107      16168.937      275.15478      72.737214      0.67522958     52478.572    
     23000   590.85572      17399.674     -1008.5099      1225.7172      2288.7743      16142.982      231.17158      61.605044      0.67546754     52460.084    
     23100   582.84182      17443.561     -1048.982       1218.2625      2414.4934      16146.489      193.27529      62.262033      0.67552525     52455.603    
[...]
    282900   578.61562      17012.422     -1181.2911      1205.1619      2310.6528      15935.364      218.48943      68.92981       0.76296765     46443.757    
    283000   578.41387      17069.287     -1182.8256      1194.7335      2234.0395      16116.824      197.64623      53.557761      0.75991513     46630.318    
    283100   582.11864      17039.687     -1197.2328      1179.4898      2231.6132      16136.746      179.06682      54.778545      0.75665752     46831.074    
    283200   572.48431      17110.288     -1183.0337      1186.2769      2312.8128      16015.613      264.73076      57.0616        0.7534715      47029.097    
    283300   571.82928      17085.223     -1187.357       1191.301       2243.9724      16044.72       267.82203      65.70005       0.75002162     47245.416    
    283400   577.06287      17003.373     -1203.3483      1203.5791      2266.2752      16092.905      124.48751      60.146846      0.74664193     47459.274    
    283500   571.81736      17017.633     -1199.3057      1209.4488      2170.9619      16013.295      293.58585      67.186271      0.74388855     47634.936    
    283600   564.0881       17058.732     -1158.7187      1211.3727      2303.535       16023.427      167.92013      49.448916      0.74167823     47776.896    
    283700   568.01698      17005.07      -1131.7046      1202.8533      2264.565       15987.862      158.50818      60.664875      0.73961982     47909.862    
    283800   563.73166      17038.74      -1152.9558      1201.0498      2257.4327      16043.815      163.16563      63.809081      0.73785379     48024.534    
    283900   575.41541      16959.59      -1170.2468      1202.5372      2195.0374      15974.554      242.56679      54.906953      0.73605643     48141.804    
    284000   571.34857      17076.636     -1186.1177      1203.8822      2241.7263      16055.557      240.22641      60.55004       0.73458322     48238.352    
    284100   576.84068      17114.824     -1187.5601      1212.4472      2312.7785      16008.935      249.11611      58.721552      0.73326314     48325.195    
    284200   581.01417      17123.157     -1187.7366      1212.5238      2236.395       16133.528      204.11337      63.144975      0.73208379     48403.044    
    284300   584.56173      17102.044     -1152.4689      1208.6099      2284.8657      16072.223      178.59502      49.84773       0.73115669     48464.419    
    284400   580.00443      17109.849     -1148.9773      1191.6429      2290.0308      16004.332      254.65688      59.062831      0.73008136     48535.802    
    284500   566.45856      17147.018     -1159.2798      1198.5147      2238.4559      16163.061      180.66614      66.306189      0.72907575     48602.747    
    284600   559.30697      17125.754     -1138.3684      1192.5368      2344.5417      16055.12       150.85888      61.038675      0.728181       48662.467    
    284700   573.39366      16954.081     -1142.0108      1189.9809      2239.972       15940.475      200.58025      65.971274      0.72730067     48721.369    
    284800   568.94546      16979.816     -1180.7269      1196.8384      2203.6328      16069.474      174.86955      57.482015      0.72620653     48794.775    
    284900   561.63497      17050.995     -1131.2906      1188.5244      2223.0732      16078.948      161.8904       70.265899      0.72510452     48868.933    
    285000   570.54647      16996.203     -1158.9269      1195.3782      2325.9646      15973.931      158.31903      42.030486      0.72398659     48944.393    
    285100   566.67176      17064.773     -1149.5989      1189.3546      2270.9629      16035.906      209.39592      48.494328      0.72295705     49014.093    
    285200   563.7026       17127.81      -1128.4312      1193.3039      2284.2723      16063.463      197.92296      58.291886      0.72206986     49074.315    
    285300   582.39125      17002.085     -1155.1553      1200.9858      2257.0377      15985.536      210.34603      45.806494      0.72114003     49137.591    
    285400   583.60727      17026.193     -1151.5956      1192.1674      2308.1797      16083.934      82.461995      54.150991      0.7202118      49200.921    
    285500   581.37284      17153.873     -1127.8339      1196.3536      2319.1935      16066.772      185.59202      56.672005      0.71938972     49257.146    
    285600   580.30978      17189.358     -1138.3793      1192.6958      2305.9565      16036.42       282.46807      52.64801       0.71846601     49320.474    
    285700   585.33695      17130.067     -1112.755       1197.858       2345.5619      15968.62       214.87087      56.645371      0.71728281     49401.831    
    285800   568.71249      17204.929     -1119.7669      1185.6777      2254.4985      16143.427      220.08954      62.380348      0.71608906     49484.186    
    285900   579.94539      17013.855     -1116.1684      1196.8384      2244.6772      16052.464      114.07081      61.687573      0.71502347     49557.931    
    286000   571.61478      17008.996     -1129.0009      1199.893       2204.7052      16003.67       218.52883      51.844543      0.71391453     49634.911    
    286100   562.36778      17046.695     -1140.5137      1212.3721      2241.4061      16030.652      193.46936      50.709823      0.71298984     49699.283    
    286200   567.3025       16994.973     -1142.7767      1206.7823      2179.7555      16030.131      195.46634      67.88201       0.71208571     49762.386    
    286300   570.13858      17000.611     -1124.9367      1195.6803      2260.5677      15956.61       213.1626       41.305679      0.71121588     49823.247    
    286400   556.96396      17184.334     -1127.5372      1211.0892      2215.6746      16089.368      286.21549      51.752541      0.71048048     49874.817    
    286500   573.28204      17124.633     -1088.6289      1206.6362      2170.3227      16159.181      139.56918      79.751915      0.70964595     49933.469    
    286600   579.73113      17130.756     -1130.5424      1203.938       2188.5865      16099.809      263.84037      48.097081      0.7085901      50007.873    
    286700   580.88713      17139.983     -1119.4161      1210.6252      2258.914       16042.44       228.00302      62.40021       0.70733334     50096.726    
    286800   572.76721      17197.263     -1101.9278      1213.1159      2295.9567      16056.345      218.89532      58.574434      0.70658431     50149.832    
    286900   569.93199      17185.031     -1102.9208      1215.2709      2281.1482      16028.924      252.37666      52.653764      0.70603964     50188.519    
    287000   576.03777      17088.631     -1132.3232      1214.3716      2220.0597      16119.181      142.07748      68.318408      0.70579137     50206.174    
    287100   574.9801       17063.589     -1086.4532      1195.3258      2180.183       16123.356      125.74036      68.464387      0.70583897     50202.788    
    287200   567.10357      17111.43      -1111.2263      1198.4938      2176.0657      16174.115      159.10011      56.757774      0.70588609     50199.436    
    287300   568.2224       17092.688     -1104.2813      1192.4819      2240.4849      16063.522      177.3718       65.028398      0.70618079     50178.488    
    287400   567.4036       17107.009     -1110.5086      1201.736       2305.4545      16006.165      169.96382      76.78224       0.70693262     50125.122    
    287500   567.04073      17121.144     -1126.0295      1193.2907      2161.8759      16107.606      260.47955      67.811281      0.70782214     50062.13     
    287600   577.53803      17036.7       -1090.516       1187.3745      2202.5893      15980.534      242.61257      56.021822      0.70857115     50009.211    
    287700   579.14508      17034.844     -1144.0392      1180.6512      2268.5624      15920.141      309.12797      42.610224      0.70919496     49965.223    
    287800   571.80388      17103.767     -1123.1088      1183.6191      2265.2047      16097.728      142.50137      78.316107      0.70988859     49916.402    
    287900   579.36934      17020.292     -1128.1685      1187.8922      2197.8594      16074.389      184.43557      41.972852      0.71062428     49864.724    
    288000   561.54617      17131.606     -1094.0581      1194.4176      2243.6911      16134.858      138.32558      54.128453      0.71145608     49806.425    
    288100   555.78913      17102.399     -1122.7454      1197.9318      2276.7041      16044.56       174.83038      70.011464      0.71184615     49779.133    
    288200   551.56843      17074.809     -1136.3463      1199.817       2169.1536      16124.863      193.21072      62.854279      0.71249177     49734.026    
    288300   563.18813      16961.503     -1077.643       1200.1762      2141.629       15980.383      210.07469      45.792926      0.71337484     49672.461    
    288400   550.90584      17133.388     -1126.0606      1203.911       2238.3737      16129.703      161.80189      63.80645       0.71396876     49631.141    
    288500   573.79995      17032.494     -1096.8662      1198.2272      2187.7509      16065.094      151.88309      63.733862      0.71397542     49630.678    
    288600   572.93359      17104.712     -1129.119       1188.0337      2257.9608      16081.319      195.82523      50.185822      0.71368739     49650.708    
    288700   579.62243      17068.313     -1134.4698      1200.6536      2209.6568      16056.548      208.5667       64.270152      0.71373718     49647.244    
    288800   566.54921      17194.868     -1108.3471      1202.9639      2349.9862      16043.924      196.94715      46.869663      0.71407584     49623.698    
    288900   580.40846      17070.871     -1126.7258      1208.8011      2297.6883      15978.402      194.5155       56.671904      0.71432753     49606.214    
    289000   575.17318      17096.999     -1169.1975      1215.3147      2232.0934      16115.412      189.54769      51.594928      0.71466365     49582.883    
    289100   561.96483      17174.797     -1139.5953      1204.5528      2256.3707      16169.75       173.52775      49.757615      0.7154136      49530.906    
    289200   579.08706      16965.444     -1097.7617      1205.9559      2145.6943      15974.617      224.97118      51.527754      0.71633175     49467.421    
    289300   564.41747      17019.7       -1129.5633      1202.5847      2243.8952      16025.983      145.29249      71.016448      0.71712183     49412.921    
    289400   559.29566      16990.296     -1141.4733      1207.052       2227.2741      15997.331      176.71544      62.639175      0.71815925     49341.541    
    289500   553.47831      16988.79      -1137.5584      1198.4694      2296.4334      15929.019      197.17801      44.994104      0.71971182     49235.101    
    289600   562.17173      16907.702     -1141.9085      1208.9934      2164.4165      16024.339      137.80394      54.875516      0.72168689     49100.357    
    289700   568.3589       16935.843     -1156.0934      1213.2156      2199.3707      16004.381      172.87076      42.977438      0.7238707      48952.229    
    289800   571.39127      17057.12      -1122.696       1214.6001      2215.9697      16122.09       113.05593      55.164166      0.72655583     48771.316    
    289900   570.11967      17129.263     -1133.9601      1220.9299      2284.3386      16099.318      136.75211      61.761095      0.72926529     48590.115    
    290000   564.50374      17208.194     -1139.9676      1211.3256      2420.4113      16063.091      149.99254      45.719363      0.73179744     48421.984    
    290100   568.36517      17186.27      -1141.533       1225.5345      2294.2988      16104.701      188.16237      55.413236      0.7340906      48270.723    
    290200   572.18775      17136.493     -1113.8965      1222.1389      2264.7141      16056.33       173.73171      75.861949      0.73626339     48128.271    
    290300   569.54713      17112.689     -1143.7913      1223.6861      2218.7477      16191.889      117.78167      45.481333      0.73789459     48021.878    
    290400   586.47536      16906.574     -1195.4836      1201.6819      2245.0776      16015.64       125.42412      56.42547       0.73917524     47938.678    
    290500   572.84717      16959.139     -1156.2607      1211.2122      2220.7535      15955.582      215.40941      53.210507      0.74036193     47861.84     
    290600   575.42997      16870.684     -1171.8383      1204.5547      2190.899       15991.19       156.26781      39.830529      0.74115144     47810.855    
    290700   559.45155      16980.562     -1185.294       1207.0548      2255.3562      16059.835      130.76904      54.021436      0.74229987     47736.886    
    290800   567.11919      16916.045     -1169.1358      1204.4846      2235.7758      16004.323      121.06772      61.340027      0.7438833      47635.273    
    290900   564.4488       16974.958     -1169.2678      1202.1912      2303.2514      16039.616      75.871875      65.579053      0.74502795     47562.087    
    291000   572.06336      17001.678     -1174.6077      1207.171       2265.6824      16005.091      184.4381       56.239488      0.74582272     47511.403    
    291100   586.60221      17011.062     -1149.0508      1207.7048      2278.9678      15972.382      179.42577      62.502196      0.74664182     47459.281    
    291200   576.11422      17152.054     -1127.2264      1203.6371      2272.9716      16063.255      229.45963      48.892792      0.74703756     47434.14     
    291300   570.98782      17185.317     -1167.9036      1210.4252      2291.2273      16107.286      221.19479      62.383313      0.74694249     47440.177    
    291400   581.12015      17056.688     -1166.5244      1204.035       2337.2544      15974.339      208.12112      38.576255      0.74645908     47470.9      
    291500   570.82816      17094.497     -1174.3125      1199.9576      2225.8556      16076.193      241.56197      66.389378      0.74568248     47520.339    
    291600   567.61363      17058.532     -1156.5471      1198.7918      2259.3339      16074.301      169.59988      54.707778      0.74452202     47594.407    
    291700   570.47986      16976.842     -1173.996       1207.0677      2288.1292      16032.04       108.10046      59.33781       0.74340409     47665.979    
    291800   565.22069      16988.24      -1160.2843      1208.1688      2181.8645      16190.106      60.217218      52.733561      0.74221477     47742.359    
    291900   557.87731      17048.74      -1179.5746      1204.3193      2226.3674      16072.955      195.58389      72.207777      0.74111001     47813.528    
    292000   566.84714      17004.976     -1151.086       1203.4365      2269.237       16041.109      137.73586      47.309151      0.74038166     47860.565    
    292100   572.45073      17052.787     -1171.4939      1208.3988      2251.5759      16158.321      87.668347      60.54459       0.73958124     47912.362    
    292200   565.24543      17234.633     -1155.2323      1212.7001      2296.9649      16130.782      227.04839      65.763938      0.73884375     47960.186    
    292300   581.67489      17126.377     -1160.4893      1204.494       2283.2954      16025.913      273.43853      44.499443      0.73814759     48005.418    
    292400   584.81557      17087.724     -1160.9142      1211.5647      2182.6338      16185.672      162.15722      50.843123      0.73769834     48034.653    
    292500   583.03904      17061.098     -1163.6966      1217.4256      2264.1328      16097.516      143.62267      47.217478      0.73751059     48046.881    
    292600   564.74352      17173.842     -1170.6903      1225.5206      2323.0467      16122.595      157.99919      59.846554      0.73743449     48051.84     
    292700   574.35356      17041.754     -1173.6088      1225.3826      2247.3362      16010.894      225.35347      50.163926      0.73763588     48038.721    
    292800   572.18722      17019.44      -1182.7365      1227.8849      2273.7674      15963.093      222.28543      56.809404      0.73789254     48022.012    
    292900   563.72723      17063.56      -1189.4767      1211.5317      2274.0991      16059.634      175.74386      75.925054      0.73815389     48005.009    
    293000   563.63137      17046.335     -1169.7495      1210.9407      2235.5334      16056.324      204.6573       51.673645      0.73869305     47969.971    
    293100   570.00285      16985.354     -1176.1758      1214.9524      2128.2164      16210.552      85.09854       66.222848      0.73943098     47922.098    
    293200   564.84865      17067.789     -1187.2076      1211.5886      2260.2212      16064.145      192.69143      70.857256      0.739907       47891.267    
    293300   584.63092      16974.822     -1190.4573      1205.0575      2182.9691      15977.736      289.19435      55.243584      0.74060998     47845.81     
    293400   588.14645      17013.853     -1186.1412      1194.5252      2134.4414      16149.55       217.85692      46.567672      0.74104328     47817.833    
    293500   580.61681      17111.482     -1212.9164      1190.9939      2297.7974      16128.337      187.32074      61.06107       0.74145691     47791.157    
    293600   582.32255      17070.635     -1190.2912      1201.1683      2283.0199      16071.566      178.21386      65.428476      0.74235248     47733.503    
    293700   576.28302      17047.856     -1170.4469      1201.1415      2200.7432      16026.725      269.30142      58.416356      0.74333178     47670.617    
    293800   562.31626      17090.094     -1223.0236      1197.2198      2285.6243      16111.142      202.9719       54.993622      0.74416097     47617.499    
    293900   570.56888      16967.67      -1239.384       1197.4165      2214.4066      16049.988      224.25783      59.809016      0.74499999     47563.872    
    294000   563.01076      17023.726     -1195.458       1182.5998      2240.0207      16005.005      272.68407      58.994767      0.74621841     47486.21     
    294100   561.34165      17047.45      -1204.5806      1194.1803      2192.1292      16133.67       223.85611      48.085997      0.74692214     47441.47     
    294200   558.08973      17094.4       -1188.2776      1201.1961      2279.5465      16107.608      159.12844      74.657257      0.74734031     47414.924    
    294300   576.08221      16956.36      -1182.8193      1194.9473      2177.8469      16064.348      196.84267      43.355842      0.74753821     47402.371    
    294400   570.04874      17028.033     -1190.8124      1194.7886      2257.43        16069.479      167.17529      66.734457      0.74743789     47408.734    
    294500   571.85518      17021.924     -1241.2898      1185.3349      2212.1457      16121.808      213.10976      68.90412       0.74715431     47426.728    
    294600   574.75636      17011.353     -1194.6128      1188.0392      2239.3787      16119.799      140.29205      60.420267      0.74676284     47451.59     
    294700   582.42819      16963.932     -1185.8574      1190.0556      2278.1015      15942.428      218.35134      63.46578       0.74611533     47492.77     
    294800   570.07409      17081.861     -1174.3894      1193.519       2208.7614      15990.561      351.53422      54.282797      0.74514015     47554.925    
    294900   569.2497       17077.067     -1194.9852      1194.5132      2265.1665      16048.587      246.189        60.071785      0.74399578     47628.071    
    295000   566.36519      17067.698     -1176.786       1210.8128      2323.3511      15997.068      185.8847       69.168566      0.74285985     47700.901    
    295100   557.0568       17107.117     -1136.8689      1208.4702      2186.7164      16050.787      275.64818   