LAMMPS output created by EMC v9.4.4, build Jul 27 2022 18:02:20

          74  atoms
          85  bonds
         186  angles
         348  dihedrals
         120  impropers

           7  atom types
           8  bond types
          19  angle types
          35  dihedral types
          23  improper types

             0    20.17642763  xlo xhi
             0    20.17642763  ylo yhi
             0    20.17642763  zlo zhi

Masses

       1   12.01115  # c
       2   12.01115  # c1
       3    1.00797  # h
       4    1.00797  # hc
       5   15.99940  # o3e
       6   15.99940  # oc
       7   15.99940  # oh

Atoms

       1       1   7 -0.5571   0.8207884567   8.2278338236  12.7054201574  # oh
       2       1   3  0.4241   0.7247932083   8.3340815290  11.7677935457  # h
       3       1   2  0.0800   1.9699539064   8.9836873379  13.1388803575  # c1
       4       1   4  0.0530   1.9177918236   9.8691740640  12.4556574419  # hc
       5       1   2  0.0800   2.2281527153   9.4019604006  14.5745789993  # c1
       6       1   4  0.0530   1.5481075684  10.1922957856  14.9501903864  # hc
       7       1   6 -0.2660   2.0419465398   8.1725734048  15.2858251008  # oc
       8       1   2  0.0800   2.1337343599   7.8612843024  16.6664732054  # c1
       9       1   4  0.0530   1.5804105155   6.9498013136  16.5763134989  # hc
      10       1   2  0.0800   1.1710490764   8.5641184236  17.6596405531  # c1
      11       1   4  0.0530   0.5963815325   7.9432682776  18.3253516103  # hc
      12       1   6 -0.2660   0.1822291472   9.3842596249  17.0243924152  # oc
      13       1   2  0.0800  -0.3912757264  10.3720390691  17.7975300382  # c1
      14       1   4  0.0530  -0.2968099527  10.0987779084  18.9220113426  # hc
      15       1   1 -0.1060  -1.8038311732  10.9235484986  17.7061450657  # c
      16       1   4  0.0530  -2.7308918456  10.3190105098  17.8432817016  # hc
      17       1   4  0.0530  -1.8378305669  11.2133326122  16.6060077407  # hc
      18       1   2 -0.0530  -1.5241520036  12.2854095125  18.4367976473  # c1
      19       1   4  0.0530  -2.3441297395  12.7906048848  18.9258051120  # hc
      20       1   2 -0.0530  -0.0285321944  12.5268355356  19.3158832015  # c1
      21       1   4  0.0530  -0.0230662496  11.9034990503  20.2326796070  # hc
      22       1   2  0.0800   0.2096221391  14.0180375329  19.7104891293  # c1
      23       1   4  0.0530  -0.5682450273  14.5584589850  20.2995330637  # hc
      24       1   5 -0.2660   1.5975641507  14.3306888144  20.0822750647  # o3e
      25       1   2  0.0800   1.1664865104  14.7470762023  18.8155853564  # c1
      26       1   4  0.0530   1.1520265798  15.8096252606  18.5394370985  # hc
      27       1   1 -0.1060   1.7296129287  13.7170882489  17.7321792470  # c
      28       1   4  0.0530   2.8078272453  13.7091447610  17.6668012978  # hc
      29       1   4  0.0530   1.3300234101  14.0165620584  16.7197797679  # hc
      30       1   2 -0.0530   1.2041639852  12.2742014660  18.2703094799  # c1
      31       1   4  0.0530   2.0923605352  11.6613006993  18.5041396930  # hc
      32       1   2 -0.0530   0.2375281549  11.7735896019  17.2301598274  # c1
      33       1   4  0.0530   0.6983859950  11.5113246155  16.2904163151  # hc
      34       1   1 -0.1060  -0.9567273006  12.9138523971  17.1760386338  # c
      35       1   4  0.0530  -0.6163991682  13.9410298063  17.3254527739  # hc
      36       1   4  0.0530  -1.6600774348  12.9576656179  16.3662478320  # hc
      37       1   1 -0.1060   2.2316391722   9.0344212339  18.7578386798  # c
      38       1   4  0.0530   2.8439746745   9.9085208350  18.4264364081  # hc
      39       1   4  0.0530   1.7748548000   9.3271884888  19.7488907968  # hc
      40       1   2 -0.0530   3.2635637555   7.8922614856  18.7788996897  # c1
      41       1   4  0.0530   4.1679887640   8.2573669101  19.2523046807  # hc
      42       1   2 -0.0530   3.1217068748   6.3393364181  19.2330131744  # c1
      43       1   4  0.0530   2.7809887371   6.2343672898  20.2521783931  # hc
      44       1   1 -0.1060   4.5608853676   6.0893028707  18.7711233644  # c
      45       1   4  0.0530   5.3630065454   6.7977888674  19.0924874603  # hc
      46       1   4  0.0530   4.9743042363   5.0412309744  18.9073934343  # hc
      47       1   2 -0.0530   4.1462742883   6.2765065822  17.2569226587  # c1
      48       1   4  0.0530   5.0717324773   6.3339113142  16.7083476018  # hc
      49       1   2  0.0800   3.0953353799   5.0944115070  17.0435888735  # c1
      50       1   4  0.0530   2.7099143187   4.8586630076  16.0203550709  # hc
      51       1   2  0.0800   2.4090694355   5.1648689179  18.3236884598  # c1
      52       1   4  0.0530   1.3362030514   4.9332742370  18.5034228514  # hc
      53       1   5 -0.2660   3.2031488113   4.0225636255  18.0353582419  # o3e
      54       1   2 -0.0530   3.5467055417   7.7024329906  17.2787983546  # c1
      55       1   4  0.0530   4.3213971938   8.5281869992  16.9193258673  # hc
      56       1   1 -0.1060   3.6882448208  10.0781420719  14.4580748232  # c
      57       1   4  0.0530   3.5713061165  10.8588354991  13.7043151237  # hc
      58       1   4  0.0530   4.1694663494  10.4575764391  15.3927671030  # hc
      59       1   2 -0.0530   4.4424914203   8.8702360537  13.9672122186  # c1
      60       1   4  0.0530   4.4197280082   8.3118334977  14.8905963730  # hc
      61       1   2 -0.0530   5.7928723580   8.3562321996  13.4225697904  # c1
      62       1   4  0.0530   6.6958568602   8.6066569478  14.0051447992  # hc
      63       1   1 -0.1060   5.2248619979   6.8407168022  13.3991097906  # c
      64       1   4  0.0530   5.9261863316   6.1458332929  12.9894000057  # hc
      65       1   4  0.0530   4.7684312165   6.4468209707  14.3070043206  # hc
      66       1   2 -0.0530   4.0884864687   7.0731906461  12.3441513431  # c1
      67       1   4  0.0530   3.4340245533   6.1205652505  12.1067209770  # hc
      68       1   2  0.0800   5.0076918044   7.3389087009  11.1828321058  # c1
      69       1   4  0.0530   4.4980608593   7.3908591619  10.2829165087  # hc
      70       1   2  0.0800   6.1439794751   8.1181207593  11.8369062534  # c1
      71       1   4  0.0530   7.2256844541   7.9791854671  11.6658507071  # hc
      72       1   5 -0.2660   5.4301315560   8.8568586868  10.9367266295  # o3e
      73       1   2 -0.0530   3.4179279563   8.3762900761  12.8966642501  # c1
      74       1   4  0.0530   3.6685640448   9.0235336070  12.0738309312  # hc

Bonds

       1       7       3       1  # c1,oh
       2       8       2       1  # h,oh
       3       3       3       5  # c1,c1
       4       3       3      73  # c1,c1
       5       4       3       4  # c1,hc
       6       1      56       5  # c,c1
       7       6       5       7  # c1,oc
       8       4       5       6  # c1,hc
       9       6       8       7  # c1,oc
      10       3       8      10  # c1,c1
      11       3       8      54  # c1,c1
      12       4       8       9  # c1,hc
      13       1      37      10  # c,c1
      14       6      10      12  # c1,oc
      15       4      10      11  # c1,hc
      16       6      13      12  # c1,oc
      17       1      15      13  # c,c1
      18       3      13      32  # c1,c1
      19       4      13      14  # c1,hc
      20       1      15      18  # c,c1
      21       2      15      16  # c,hc
      22       2      15      17  # c,hc
      23       3      18      20  # c1,c1
      24       1      34      18  # c,c1
      25       4      18      19  # c1,hc
      26       3      20      22  # c1,c1
      27       3      20      30  # c1,c1
      28       4      20      21  # c1,hc
      29       3      22      25  # c1,c1
      30       5      22      24  # c1,o3e
      31       4      22      23  # c1,hc
      32       5      25      24  # c1,o3e
      33       1      27      25  # c,c1
      34       4      25      26  # c1,hc
      35       1      27      30  # c,c1
      36       2      27      28  # c,hc
      37       2      27      29  # c,hc
      38       3      30      32  # c1,c1
      39       4      30      31  # c1,hc
      40       1      34      32  # c,c1
      41       4      32      33  # c1,hc
      42       2      34      35  # c,hc
      43       2      34      36  # c,hc
      44       1      37      40  # c,c1
      45       2      37      38  # c,hc
      46       2      37      39  # c,hc
      47       3      40      42  # c1,c1
      48       3      40      54  # c1,c1
      49       4      40      41  # c1,hc
      50       1      44      42  # c,c1
      51       3      42      51  # c1,c1
      52       4      42      43  # c1,hc
      53       1      44      47  # c,c1
      54       2      44      45  # c,hc
      55       2      44      46  # c,hc
      56       3      47      54  # c1,c1
      57       3      47      49  # c1,c1
      58       4      47      48  # c1,hc
      59       3      49      51  # c1,c1
      60       5      49      53  # c1,o3e
      61       4      49      50  # c1,hc
      62       5      51      53  # c1,o3e
      63       4      51      52  # c1,hc
      64       4      54      55  # c1,hc
      65       1      56      59  # c,c1
      66       2      56      57  # c,hc
      67       2      56      58  # c,hc
      68       3      59      61  # c1,c1
      69       3      59      73  # c1,c1
      70       4      59      60  # c1,hc
      71       1      63      61  # c,c1
      72       3      61      70  # c1,c1
      73       4      61      62  # c1,hc
      74       1      63      66  # c,c1
      75       2      63      64  # c,hc
      76       2      63      65  # c,hc
      77       3      66      73  # c1,c1
      78       3      66      68  # c1,c1
      79       4      66      67  # c1,hc
      80       3      68      70  # c1,c1
      81       5      68      72  # c1,o3e
      82       4      68      69  # c1,hc
      83       5      70      72  # c1,o3e
      84       4      70      71  # c1,hc
      85       4      73      74  # c1,hc

Angles

       1      12       5       3       1  # c1,c1,oh
       2      12      73       3       1  # c1,c1,oh
       3      19       4       3       1  # hc,c1,oh
       4      15       3       1       2  # c1,oh,h
       5       2      56       5       3  # c,c1,c1
       6      11       3       5       7  # c1,c1,oc
       7       9       3       5       6  # c1,c1,hc
       8       8       3      73      66  # c1,c1,c1
       9       8       3      73      59  # c1,c1,c1
      10       9       3      73      74  # c1,c1,hc
      11       9       5       3       4  # c1,c1,hc
      12       9      73       3       4  # c1,c1,hc
      13       8       5       3      73  # c1,c1,c1
      14       6       5      56      59  # c1,c,c1
      15       7       5      56      57  # c1,c,hc
      16       7       5      56      58  # c1,c,hc
      17      14       5       7       8  # c1,oc,c1
      18       3      56       5       6  # c,c1,hc
      19      18       6       5       7  # hc,c1,oc
      20       5      56       5       7  # c,c1,oc
      21      11      10       8       7  # c1,c1,oc
      22      11      54       8       7  # c1,c1,oc
      23      18       9       8       7  # hc,c1,oc
      24       2      37      10       8  # c,c1,c1
      25      11       8      10      12  # c1,c1,oc
      26       9       8      10      11  # c1,c1,hc
      27       8       8      54      47  # c1,c1,c1
      28       8       8      54      40  # c1,c1,c1
      29       9       8      54      55  # c1,c1,hc
      30       9      10       8       9  # c1,c1,hc
      31       9      54       8       9  # c1,c1,hc
      32       8      10       8      54  # c1,c1,c1
      33       6      10      37      40  # c1,c,c1
      34       7      10      37      38  # c1,c,hc
      35       7      10      37      39  # c1,c,hc
      36      14      10      12      13  # c1,oc,c1
      37       3      37      10      11  # c,c1,hc
      38      18      11      10      12  # hc,c1,oc
      39       5      37      10      12  # c,c1,oc
      40       5      15      13      12  # c,c1,oc
      41      11      32      13      12  # c1,c1,oc
      42      18      14      13      12  # hc,c1,oc
      43       6      13      15      18  # c1,c,c1
      44       7      13      15      16  # c1,c,hc
      45       7      13      15      17  # c1,c,hc
      46       8      13      32      30  # c1,c1,c1
      47       2      34      32      13  # c,c1,c1
      48       9      13      32      33  # c1,c1,hc
      49       3      15      13      14  # c,c1,hc
      50       9      32      13      14  # c1,c1,hc
      51       2      15      13      32  # c,c1,c1
      52       2      15      18      20  # c,c1,c1
      53       1      15      18      34  # c,c1,c
      54       3      15      18      19  # c,c1,hc
      55       7      18      15      16  # c1,c,hc
      56      16      16      15      17  # hc,c,hc
      57       7      18      15      17  # c1,c,hc
      58       8      18      20      22  # c1,c1,c1
      59       8      18      20      30  # c1,c1,c1
      60       9      18      20      21  # c1,c1,hc
      61       6      18      34      32  # c1,c,c1
      62       7      18      34      35  # c1,c,hc
      63       7      18      34      36  # c1,c,hc
      64       9      20      18      19  # c1,c1,hc
      65       3      34      18      19  # c,c1,hc
      66       2      34      18      20  # c,c1,c1
      67       8      20      22      25  # c1,c1,c1
      68      10      20      22      24  # c1,c1,o3e
      69       9      20      22      23  # c1,c1,hc
      70       2      27      30      20  # c,c1,c1
      71       8      20      30      32  # c1,c1,c1
      72       9      20      30      31  # c1,c1,hc
      73       9      22      20      21  # c1,c1,hc
      74       9      30      20      21  # c1,c1,hc
      75       8      22      20      30  # c1,c1,c1
      76       2      27      25      22  # c,c1,c1
      77      10      22      25      24  # c1,c1,o3e
      78       9      22      25      26  # c1,c1,hc
      79      13      22      24      25  # c1,o3e,c1
      80       9      25      22      23  # c1,c1,hc
      81      17      23      22      24  # hc,c1,o3e
      82      10      25      22      24  # c1,c1,o3e
      83       4      27      25      24  # c,c1,o3e
      84      17      26      25      24  # hc,c1,o3e
      85       6      25      27      30  # c1,c,c1
      86       7      25      27      28  # c1,c,hc
      87       7      25      27      29  # c1,c,hc
      88       3      27      25      26  # c,c1,hc
      89       2      27      30      32  # c,c1,c1
      90       3      27      30      31  # c,c1,hc
      91       7      30      27      28  # c1,c,hc
      92      16      28      27      29  # hc,c,hc
      93       7      30      27      29  # c1,c,hc
      94       2      34      32      30  # c,c1,c1
      95       9      30      32      33  # c1,c1,hc
      96       9      32      30      31  # c1,c1,hc
      97       7      32      34      35  # c1,c,hc
      98       7      32      34      36  # c1,c,hc
      99       3      34      32      33  # c,c1,hc
     100      16      35      34      36  # hc,c,hc
     101       2      37      40      42  # c,c1,c1
     102       2      37      40      54  # c,c1,c1
     103       3      37      40      41  # c,c1,hc
     104       7      40      37      38  # c1,c,hc
     105      16      38      37      39  # hc,c,hc
     106       7      40      37      39  # c1,c,hc
     107       2      44      42      40  # c,c1,c1
     108       8      40      42      51  # c1,c1,c1
     109       9      40      42      43  # c1,c1,hc
     110       8      40      54      47  # c1,c1,c1
     111       9      40      54      55  # c1,c1,hc
     112       9      42      40      41  # c1,c1,hc
     113       9      54      40      41  # c1,c1,hc
     114       8      42      40      54  # c1,c1,c1
     115       6      42      44      47  # c1,c,c1
     116       7      42      44      45  # c1,c,hc
     117       7      42      44      46  # c1,c,hc
     118       8      42      51      49  # c1,c1,c1
     119      10      42      51      53  # c1,c1,o3e
     120       9      42      51      52  # c1,c1,hc
     121       3      44      42      43  # c,c1,hc
     122       9      51      42      43  # c1,c1,hc
     123       2      44      42      51  # c,c1,c1
     124       2      44      47      54  # c,c1,c1
     125       2      44      47      49  # c,c1,c1
     126       3      44      47      48  # c,c1,hc
     127       7      47      44      45  # c1,c,hc
     128      16      45      44      46  # hc,c,hc
     129       7      47      44      46  # c1,c,hc
     130       9      47      54      55  # c1,c1,hc
     131       8      47      49      51  # c1,c1,c1
     132      10      47      49      53  # c1,c1,o3e
     133       9      47      49      50  # c1,c1,hc
     134       9      54      47      48  # c1,c1,hc
     135       9      49      47      48  # c1,c1,hc
     136       8      49      47      54  # c1,c1,c1
     137      10      49      51      53  # c1,c1,o3e
     138       9      49      51      52  # c1,c1,hc
     139      13      49      53      51  # c1,o3e,c1
     140       9      51      49      50  # c1,c1,hc
     141      17      50      49      53  # hc,c1,o3e
     142      10      51      49      53  # c1,c1,o3e
     143      17      52      51      53  # hc,c1,o3e
     144       2      56      59      61  # c,c1,c1
     145       2      56      59      73  # c,c1,c1
     146       3      56      59      60  # c,c1,hc
     147       7      59      56      57  # c1,c,hc
     148      16      57      56      58  # hc,c,hc
     149       7      59      56      58  # c1,c,hc
     150       2      63      61      59  # c,c1,c1
     151       8      59      61      70  # c1,c1,c1
     152       9      59      61      62  # c1,c1,hc
     153       8      59      73      66  # c1,c1,c1
     154       9      59      73      74  # c1,c1,hc
     155       9      61      59      60  # c1,c1,hc
     156       9      73      59      60  # c1,c1,hc
     157       8      61      59      73  # c1,c1,c1
     158       6      61      63      66  # c1,c,c1
     159       7      61      63      64  # c1,c,hc
     160       7      61      63      65  # c1,c,hc
     161       8      61      70      68  # c1,c1,c1
     162      10      61      70      72  # c1,c1,o3e
     163       9      61      70      71  # c1,c1,hc
     164       3      63      61      62  # c,c1,hc
     165       9      70      61      62  # c1,c1,hc
     166       2      63      61      70  # c,c1,c1
     167       2      63      66      73  # c,c1,c1
     168       2      63      66      68  # c,c1,c1
     169       3      63      66      67  # c,c1,hc
     170       7      66      63      64  # c1,c,hc
     171      16      64      63      65  # hc,c,hc
     172       7      66      63      65  # c1,c,hc
     173       9      66      73      74  # c1,c1,hc
     174       8      66      68      70  # c1,c1,c1
     175      10      66      68      72  # c1,c1,o3e
     176       9      66      68      69  # c1,c1,hc
     177       9      73      66      67  # c1,c1,hc
     178       9      68      66      67  # c1,c1,hc
     179       8      68      66      73  # c1,c1,c1
     180      10      68      70      72  # c1,c1,o3e
     181       9      68      70      71  # c1,c1,hc
     182      13      68      72      70  # c1,o3e,c1
     183       9      70      68      69  # c1,c1,hc
     184      17      69      68      72  # hc,c1,o3e
     185      10      70      68      72  # c1,c1,o3e
     186      17      71      70      72  # hc,c1,o3e

Dihedrals

       1       8      56       5       3       1  # c,c1,c1,oh
       2      35       7       5       3       1  # oc,c1,c1,oh
       3      33       6       5       3       1  # hc,c1,c1,oh
       4      20      66      73       3       1  # c1,c1,c1,oh
       5      20      59      73       3       1  # c1,c1,c1,oh
       6      33      74      73       3       1  # hc,c1,c1,oh
       7      23       5       3       1       2  # c1,c1,oh,h
       8      23      73       3       1       2  # c1,c1,oh,h
       9      26       2       1       3       4  # h,oh,c1,hc
      10      11      59      56       5       3  # c1,c,c1,c1
      11      15       3       5      56      57  # c1,c1,c,hc
      12      15       3       5      56      58  # c1,c1,c,hc
      13      22       3       5       7       8  # c1,c1,oc,c1
      14       4      63      66      73       3  # c,c1,c1,c1
      15      16       3      73      66      68  # c1,c1,c1,c1
      16      17       3      73      66      67  # c1,c1,c1,hc
      17       4      56      59      73       3  # c,c1,c1,c1
      18      16       3      73      59      61  # c1,c1,c1,c1
      19      17       3      73      59      60  # c1,c1,c1,hc
      20       5      56       5       3       4  # c,c1,c1,hc
      21      32       4       3       5       7  # hc,c1,c1,oc
      22      30       4       3       5       6  # hc,c1,c1,hc
      23      17      66      73       3       4  # c1,c1,c1,hc
      24      17      59      73       3       4  # c1,c1,c1,hc
      25      30       4       3      73      74  # hc,c1,c1,hc
      26      16       5       3      73      66  # c1,c1,c1,c1
      27      16       5       3      73      59  # c1,c1,c1,c1
      28      17       5       3      73      74  # c1,c1,c1,hc
      29      11       5      56      59      61  # c1,c,c1,c1
      30      11       5      56      59      73  # c1,c,c1,c1
      31      12       5      56      59      60  # c1,c,c1,hc
      32      22      10       8       7       5  # c1,c1,oc,c1
      33      22      54       8       7       5  # c1,c1,oc,c1
      34      25       5       7       8       9  # c1,oc,c1,hc
      35      17      73       3       5       6  # c1,c1,c1,hc
      36      12      59      56       5       6  # c1,c,c1,hc
      37      27      57      56       5       6  # hc,c,c1,hc
      38      27      58      56       5       6  # hc,c,c1,hc
      39      25       8       7       5       6  # c1,oc,c1,hc
      40      19      73       3       5       7  # c1,c1,c1,oc
      41      14      59      56       5       7  # c1,c,c1,oc
      42      29      57      56       5       7  # hc,c,c1,oc
      43      29      58      56       5       7  # hc,c,c1,oc
      44       7      37      10       8       7  # c,c1,c1,oc
      45      34       7       8      10      12  # oc,c1,c1,oc
      46      32      11      10       8       7  # hc,c1,c1,oc
      47      19      47      54       8       7  # c1,c1,c1,oc
      48      19      40      54       8       7  # c1,c1,c1,oc
      49      32      55      54       8       7  # hc,c1,c1,oc
      50      10      56       5       7       8  # c,c1,oc,c1
      51      11      40      37      10       8  # c1,c,c1,c1
      52      15       8      10      37      38  # c1,c1,c,hc
      53      15       8      10      37      39  # c1,c1,c,hc
      54      22       8      10      12      13  # c1,c1,oc,c1
      55       4      44      47      54       8  # c,c1,c1,c1
      56      16       8      54      47      49  # c1,c1,c1,c1
      57      17       8      54      47      48  # c1,c1,c1,hc
      58       4      37      40      54       8  # c,c1,c1,c1
      59      16       8      54      40      42  # c1,c1,c1,c1
      60      17       8      54      40      41  # c1,c1,c1,hc
      61       5      37      10       8       9  # c,c1,c1,hc
      62      32       9       8      10      12  # hc,c1,c1,oc
      63      30       9       8      10      11  # hc,c1,c1,hc
      64      17      47      54       8       9  # c1,c1,c1,hc
      65      17      40      54       8       9  # c1,c1,c1,hc
      66      30       9       8      54      55  # hc,c1,c1,hc
      67      16      10       8      54      47  # c1,c1,c1,c1
      68      16      10       8      54      40  # c1,c1,c1,c1
      69      17      10       8      54      55  # c1,c1,c1,hc
      70      11      10      37      40      42  # c1,c,c1,c1
      71      11      10      37      40      54  # c1,c,c1,c1
      72      12      10      37      40      41  # c1,c,c1,hc
      73      10      15      13      12      10  # c,c1,oc,c1
      74      22      32      13      12      10  # c1,c1,oc,c1
      75      25      10      12      13      14  # c1,oc,c1,hc
      76      17      54       8      10      11  # c1,c1,c1,hc
      77      12      40      37      10      11  # c1,c,c1,hc
      78      27      38      37      10      11  # hc,c,c1,hc
      79      27      39      37      10      11  # hc,c,c1,hc
      80      25      13      12      10      11  # c1,oc,c1,hc
      81      19      54       8      10      12  # c1,c1,c1,oc
      82      14      40      37      10      12  # c1,c,c1,oc
      83      29      38      37      10      12  # hc,c,c1,oc
      84      29      39      37      10      12  # hc,c,c1,oc
      85      14      18      15      13      12  # c1,c,c1,oc
      86      29      16      15      13      12  # hc,c,c1,oc
      87      29      17      15      13      12  # hc,c,c1,oc
      88      19      30      32      13      12  # c1,c1,c1,oc
      89       7      34      32      13      12  # c,c1,c1,oc
      90      32      33      32      13      12  # hc,c1,c1,oc
      91      10      37      10      12      13  # c,c1,oc,c1
      92      11      13      15      18      20  # c1,c,c1,c1
      93       1      34      18      15      13  # c,c1,c,c1
      94      12      13      15      18      19  # c1,c,c1,hc
      95       4      27      30      32      13  # c,c1,c1,c1
      96      16      13      32      30      20  # c1,c1,c1,c1
      97      17      13      32      30      31  # c1,c1,c1,hc
      98      11      18      34      32      13  # c1,c,c1,c1
      99      15      13      32      34      35  # c1,c1,c,hc
     100      15      13      32      34      36  # c1,c1,c,hc
     101      12      18      15      13      14  # c1,c,c1,hc
     102      27      16      15      13      14  # hc,c,c1,hc
     103      27      17      15      13      14  # hc,c,c1,hc
     104      17      30      32      13      14  # c1,c1,c1,hc
     105       5      34      32      13      14  # c,c1,c1,hc
     106      30      14      13      32      33  # hc,c1,c1,hc
     107       4      15      13      32      30  # c,c1,c1,c1
     108       3      15      13      32      34  # c,c1,c1,c
     109       5      15      13      32      33  # c,c1,c1,hc
     110       4      15      18      20      22  # c,c1,c1,c1
     111       4      15      18      20      30  # c,c1,c1,c1
     112       5      15      18      20      21  # c,c1,c1,hc
     113       1      15      18      34      32  # c,c1,c,c1
     114       2      15      18      34      35  # c,c1,c,hc
     115       2      15      18      34      36  # c,c1,c,hc
     116      15      32      13      15      16  # c1,c1,c,hc
     117      15      20      18      15      16  # c1,c1,c,hc
     118       2      34      18      15      16  # c,c1,c,hc
     119      27      16      15      18      19  # hc,c,c1,hc
     120      15      32      13      15      17  # c1,c1,c,hc
     121      15      20      18      15      17  # c1,c1,c,hc
     122       2      34      18      15      17  # c,c1,c,hc
     123      27      17      15      18      19  # hc,c,c1,hc
     124      11      18      15      13      32  # c1,c,c1,c1
     125      16      18      20      22      25  # c1,c1,c1,c1
     126      18      18      20      22      24  # c1,c1,c1,o3e
     127      17      18      20      22      23  # c1,c1,c1,hc
     128       4      27      30      20      18  # c,c1,c1,c1
     129      16      18      20      30      32  # c1,c1,c1,c1
     130      17      18      20      30      31  # c1,c1,c1,hc
     131      11      18      34      32      30  # c1,c,c1,c1
     132      12      18      34      32      33  # c1,c,c1,hc
     133      17      22      20      18      19  # c1,c1,c1,hc
     134      17      30      20      18      19  # c1,c1,c1,hc
     135      30      19      18      20      21  # hc,c1,c1,hc
     136      12      32      34      18      19  # c1,c,c1,hc
     137      27      35      34      18      19  # hc,c,c1,hc
     138      27      36      34      18      19  # hc,c,c1,hc
     139      11      32      34      18      20  # c1,c,c1,c1
     140      15      20      18      34      35  # c1,c1,c,hc
     141      15      20      18      34      36  # c1,c1,c,hc
     142       4      27      25      22      20  # c,c1,c1,c1
     143      18      20      22      25      24  # c1,c1,c1,o3e
     144      17      20      22      25      26  # c1,c1,c1,hc
     145      21      20      22      24      25  # c1,c1,o3e,c1
     146      11      25      27      30      20  # c1,c,c1,c1
     147      15      20      30      27      28  # c1,c1,c,hc
     148      15      20      30      27      29  # c1,c1,c,hc
     149       4      34      32      30      20  # c,c1,c1,c1
     150      17      20      30      32      33  # c1,c1,c1,hc
     151       5      34      18      20      21  # c,c1,c1,hc
     152      17      25      22      20      21  # c1,c1,c1,hc
     153      31      21      20      22      24  # hc,c1,c1,o3e
     154      30      21      20      22      23  # hc,c1,c1,hc
     155       5      27      30      20      21  # c,c1,c1,hc
     156      17      32      30      20      21  # c1,c1,c1,hc
     157      30      21      20      30      31  # hc,c1,c1,hc
     158       4      34      18      20      22  # c,c1,c1,c1
     159       4      27      30      20      22  # c,c1,c1,c1