LAMMPS output created by EMC v9.4.4, build Jul 27 2022 18:02:20

          74  atoms
          85  bonds
         186  angles
         345  dihedrals
         120  impropers

           8  atom types
          13  bond types
          33  angle types
          61  dihedral types
          32  improper types

             0     93.6506812  xlo xhi
             0     93.6506812  ylo yhi
             0     93.6506812  zlo zhi

Masses

       1   12.01115  # c
       2   12.01115  # c1
       3   12.01115  # c3h
       4    1.00797  # h
       5    1.00797  # hc
       6   15.99940  # o3e
       7   15.99940  # oc
       8   15.99940  # oh

Atoms

       1       1   8 -0.5571  57.3863586300  28.6017573935  66.8954093151  # oh
       2       1   4  0.4241  56.6785034879  27.9341447016  66.8277587116  # h
       3       1   2  0.0800  58.1934185466  28.4780551100  65.8127149995  # c1
       4       1   5  0.0530  59.1218288366  28.1277555458  66.3224105572  # hc
       5       1   2  0.0800  57.9018623706  27.2039877356  64.8919478894  # c1
       6       1   5  0.0530  56.8083902493  27.2873128805  64.5829299953  # hc
       7       1   1 -0.1060  58.5346208556  27.4637142606  63.5626674235  # c
       8       1   5  0.0530  58.2317200442  26.7694497120  62.7710527516  # hc
       9       1   5  0.0530  59.6051090064  27.4036999535  63.6313446576  # hc
      10       1   2 -0.0530  58.2119034255  28.9146750225  63.4587525381  # c1
      11       1   5  0.0530  58.7391205327  29.3011647633  62.5716632573  # hc
      12       1   2 -0.0530  56.6888317203  29.5171279484  63.4011746557  # c1
      13       1   5  0.0530  56.0433247622  29.0510961479  62.6503487918  # hc
      14       1   1 -0.1060  57.1585368147  30.9243071510  63.0659763042  # c
      15       1   5  0.0530  56.2891955583  31.5633869148  62.9004887383  # hc
      16       1   5  0.0530  57.8030435425  31.0143472722  62.1696015527  # hc
      17       1   2 -0.0530  57.8500321762  31.0483675056  64.5080246251  # c1
      18       1   5  0.0530  58.6042675242  31.7573867473  64.6809970635  # hc
      19       1   2 -0.0530  58.6303757270  29.6564073032  64.7364159840  # c1
      20       1   5  0.0530  59.6915459338  29.8655002119  65.0189455737  # hc
      21       1   2  0.0800  56.6258828635  30.9114032357  65.4843505174  # c1
      22       1   5  0.0530  56.7264567341  31.1317101015  66.6075982716  # hc
      23       1   2  0.0800  55.9080418533  29.8659114960  64.7729920146  # c1
      24       1   5  0.0530  55.2710373570  29.1267673127  65.2689451714  # hc
      25       1   6 -0.2660  55.3929888888  31.2063426397  64.8390266277  # o3e
      26       1   7 -0.2660  58.0885952824  25.9908183887  65.6217189561  # oc
      27       1   2  0.0800  59.4407870829  25.5829565218  65.7496502974  # c1
      28       1   5  0.0530  59.7771451410  25.6019389779  64.7208268466  # hc
      29       1   1 -0.1060  59.3823339340  24.1183628017  66.2367874490  # c
      30       1   5  0.0530  59.3577894377  23.3692155251  65.4747432674  # hc
      31       1   5  0.0530  58.3832064188  24.0324141806  66.7380783082  # hc
      32       1   2 -0.0530  60.5955944158  23.9605981849  67.1798701978  # c1
      33       1   5  0.0530  60.6421772642  23.0759761234  67.7673232059  # hc
      34       1   2 -0.0530  61.8417903875  24.1950436051  66.2852320687  # c1
      35       1   5  0.0530  61.6488700788  23.6694431521  65.3262375596  # hc
      36       1   3  0.0800  63.2227356072  23.6754116614  66.8804475542  # c3h
      37       1   5  0.0530  63.3519117896  22.7262738235  67.3668925436  # hc
      38       1   6 -0.2660  64.3225753550  24.0511523237  66.0364761482  # o3e
      39       1   3  0.0800  64.0900746786  24.8717817509  67.1537512425  # c3h
      40       1   5  0.0530  64.8774678881  25.0508471970  67.8549680671  # hc
      41       1   1 -0.1060  63.2511610101  26.1347822806  66.8241744751  # c
      42       1   5  0.0530  63.8133272206  26.8993017353  66.1719357961  # hc
      43       1   5  0.0530  62.9643323226  26.7033117465  67.7233380921  # hc
      44       1   2 -0.0530  61.9225743964  25.7865611200  66.0870273581  # c1
      45       1   5  0.0530  62.0740143444  26.0536127868  65.0451386996  # hc
      46       1   2 -0.0530  60.5125730873  26.1747400198  66.7089712787  # c1
      47       1   5  0.0530  60.6401913055  27.2860223661  67.0011845885  # hc
      48       1   1 -0.1060  60.5014829643  25.2620592084  68.0149133240  # c
      49       1   5  0.0530  59.5881094317  25.2557139291  68.5509824208  # hc
      50       1   5  0.0530  61.2727981707  25.5280936780  68.7098232660  # hc
      51       2   2 -0.0530  31.0442843709  18.9272429393  68.8873345361  # c1
      52       2   5  0.0530  32.0247496434  18.8340129751  69.4204172232  # hc
      53       2   1 -0.1060  30.9872551706  19.5455601830  67.5033217688  # c
      54       2   5  0.0530  31.4034808432  19.0318056639  66.6858490841  # hc
      55       2   5  0.0530  31.4722295627  20.5180710127  67.4358105797  # hc
      56       2   2 -0.0530  29.4246009125  19.5153858494  67.4101360341  # c1
      57       2   5  0.0530  29.0985473679  19.9707936130  66.4766964947  # hc
      58       2   2 -0.0530  29.0751098467  18.0296228147  67.6446899399  # c1
      59       2   5  0.0530  28.1587022779  17.9194315024  68.1839524877  # hc
      60       2   2  0.0800  29.1261354558  16.9722999283  66.4699656942  # c1
      61       2   5  0.0530  28.1694816889  16.6806197953  65.9599789078  # hc
      62       2   6 -0.2660  30.3533149272  17.0457661146  65.6914918226  # o3e
      63       2   2  0.0800  30.2568666339  16.0003078502  66.6877332667  # c1
      64       2   5  0.0530  30.1488015767  14.9611772807  66.3651358031  # hc
      65       2   1 -0.1060  31.1049466196  16.4066362162  67.9910780305  # c
      66       2   5  0.0530  32.1856854368  16.8468557253  67.7973758601  # hc
      67       2   5  0.0530  31.4742654808  15.5420330680  68.6522807951  # hc
      68       2   2 -0.0530  30.2697884022  17.5947248446  68.6469718780  # c1
      69       2   5  0.0530  30.0498652450  17.2527254772  69.7202156814  # hc
      70       2   2  0.0800  29.0372828902  20.3711986539  68.7135994896  # c1
      71       2   5  0.0530  28.6779906960  21.3876547741  68.5683906865  # hc
      72       2   2  0.0800  30.1037939120  20.0191234729  69.6426091332  # c1
      73       2   5  0.0530  30.6264775969  20.6078296579  70.4491434497  # hc
      74       2   6 -0.2660  28.7350724471  19.5350034137  69.7969799874  # o3e

Bonds

       1       9       3       1  # c1,oh
       2      13       2       1  # h,oh
       3       4       3       5  # c1,c1
       4       4       3      19  # c1,c1
       5       6       3       4  # c1,hc
       6       8       5      26  # c1,oc
       7       1       7       5  # c,c1
       8       6       5       6  # c1,hc
       9       1       7      10  # c,c1
      10       3       7       8  # c,hc
      11       3       7       9  # c,hc
      12       4      10      12  # c1,c1
      13       4      10      19  # c1,c1
      14       6      10      11  # c1,hc
      15       1      14      12  # c,c1
      16       4      12      23  # c1,c1
      17       6      12      13  # c1,hc
      18       1      14      17  # c,c1
      19       3      14      15  # c,hc
      20       3      14      16  # c,hc
      21       4      17      21  # c1,c1
      22       4      17      19  # c1,c1
      23       6      17      18  # c1,hc
      24       6      19      20  # c1,hc
      25       4      21      23  # c1,c1
      26       7      21      25  # c1,o3e
      27       6      21      22  # c1,hc
      28       7      23      25  # c1,o3e
      29       6      23      24  # c1,hc
      30       8      27      26  # c1,oc
      31       1      29      27  # c,c1
      32       4      27      46  # c1,c1
      33       6      27      28  # c1,hc
      34       1      29      32  # c,c1
      35       3      29      30  # c,hc
      36       3      29      31  # c,hc
      37       4      32      34  # c1,c1
      38       1      48      32  # c,c1
      39       6      32      33  # c1,hc
      40       5      34      36  # c1,c3h
      41       4      34      44  # c1,c1
      42       6      34      35  # c1,hc
      43      12      36      38  # c3h,o3e
      44      10      36      39  # c3h,c3h
      45      11      36      37  # c3h,hc
      46      12      39      38  # c3h,o3e
      47       2      41      39  # c,c3h
      48      11      39      40  # c3h,hc
      49       1      41      44  # c,c1
      50       3      41      42  # c,hc
      51       3      41      43  # c,hc
      52       4      44      46  # c1,c1
      53       6      44      45  # c1,hc
      54       1      48      46  # c,c1
      55       6      46      47  # c1,hc
      56       3      48      49  # c,hc
      57       3      48      50  # c,hc
      58       1      53      51  # c,c1
      59       4      51      72  # c1,c1
      60       4      51      68  # c1,c1
      61       6      51      52  # c1,hc
      62       1      53      56  # c,c1
      63       3      53      54  # c,hc
      64       3      53      55  # c,hc
      65       4      56      70  # c1,c1
      66       4      56      58  # c1,c1
      67       6      56      57  # c1,hc
      68       4      58      60  # c1,c1
      69       4      58      68  # c1,c1
      70       6      58      59  # c1,hc
      71       7      60      62  # c1,o3e
      72       4      60      63  # c1,c1
      73       6      60      61  # c1,hc
      74       7      63      62  # c1,o3e
      75       1      65      63  # c,c1
      76       6      63      64  # c1,hc
      77       1      65      68  # c,c1
      78       3      65      66  # c,hc
      79       3      65      67  # c,hc
      80       6      68      69  # c1,hc
      81       4      70      72  # c1,c1
      82       7      70      74  # c1,o3e
      83       6      70      71  # c1,hc
      84       7      72      74  # c1,o3e
      85       6      72      73  # c1,hc

Angles

       1      17       5       3       1  # c1,c1,oh
       2      17      19       3       1  # c1,c1,oh
       3      32       4       3       1  # hc,c1,oh
       4      23       3       1       2  # c1,oh,h
       5      16       3       5      26  # c1,c1,oc
       6       2       7       5       3  # c,c1,c1
       7      14       3       5       6  # c1,c1,hc
       8      12       3      19      17  # c1,c1,c1
       9      12       3      19      10  # c1,c1,c1
      10      14       3      19      20  # c1,c1,hc
      11      14       5       3       4  # c1,c1,hc
      12      14      19       3       4  # c1,c1,hc
      13      12       5       3      19  # c1,c1,c1
      14      22       5      26      27  # c1,oc,c1
      15       9       5       7      10  # c1,c,c1
      16      11       5       7       8  # c1,c,hc
      17      11       5       7       9  # c1,c,hc
      18      31       6       5      26  # hc,c1,oc
      19       3       7       5       6  # c,c1,hc
      20       5       7       5      26  # c,c1,oc
      21       2       7      10      12  # c,c1,c1
      22       2       7      10      19  # c,c1,c1
      23       3       7      10      11  # c,c1,hc
      24      11      10       7       8  # c1,c,hc
      25      29       8       7       9  # hc,c,hc
      26      11      10       7       9  # c1,c,hc
      27       2      14      12      10  # c,c1,c1
      28      12      10      12      23  # c1,c1,c1
      29      14      10      12      13  # c1,c1,hc
      30      12      10      19      17  # c1,c1,c1
      31      14      10      19      20  # c1,c1,hc
      32      14      12      10      11  # c1,c1,hc
      33      14      19      10      11  # c1,c1,hc
      34      12      12      10      19  # c1,c1,c1
      35       9      12      14      17  # c1,c,c1
      36      11      12      14      15  # c1,c,hc
      37      11      12      14      16  # c1,c,hc
      38      12      12      23      21  # c1,c1,c1
      39      15      12      23      25  # c1,c1,o3e
      40      14      12      23      24  # c1,c1,hc
      41       3      14      12      13  # c,c1,hc
      42      14      23      12      13  # c1,c1,hc
      43       2      14      12      23  # c,c1,c1
      44       2      14      17      21  # c,c1,c1
      45       2      14      17      19  # c,c1,c1
      46       3      14      17      18  # c,c1,hc
      47      11      17      14      15  # c1,c,hc
      48      29      15      14      16  # hc,c,hc
      49      11      17      14      16  # c1,c,hc
      50      12      17      21      23  # c1,c1,c1
      51      15      17      21      25  # c1,c1,o3e
      52      14      17      21      22  # c1,c1,hc
      53      14      17      19      20  # c1,c1,hc
      54      14      21      17      18  # c1,c1,hc
      55      14      19      17      18  # c1,c1,hc
      56      12      19      17      21  # c1,c1,c1
      57      15      21      23      25  # c1,c1,o3e
      58      14      21      23      24  # c1,c1,hc
      59      21      21      25      23  # c1,o3e,c1
      60      14      23      21      22  # c1,c1,hc
      61      30      22      21      25  # hc,c1,o3e
      62      15      23      21      25  # c1,c1,o3e
      63      30      24      23      25  # hc,c1,o3e
      64       5      29      27      26  # c,c1,oc
      65      16      46      27      26  # c1,c1,oc
      66      31      28      27      26  # hc,c1,oc
      67       9      27      29      32  # c1,c,c1
      68      11      27      29      30  # c1,c,hc
      69      11      27      29      31  # c1,c,hc
      70      12      27      46      44  # c1,c1,c1
      71       2      48      46      27  # c,c1,c1
      72      14      27      46      47  # c1,c1,hc
      73       3      29      27      28  # c,c1,hc
      74      14      46      27      28  # c1,c1,hc
      75       2      29      27      46  # c,c1,c1
      76       2      29      32      34  # c,c1,c1
      77       1      29      32      48  # c,c1,c
      78       3      29      32      33  # c,c1,hc
      79      11      32      29      30  # c1,c,hc
      80      29      30      29      31  # hc,c,hc
      81      11      32      29      31  # c1,c,hc
      82      13      32      34      36  # c1,c1,c3h
      83      12      32      34      44  # c1,c1,c1
      84      14      32      34      35  # c1,c1,hc
      85       9      32      48      46  # c1,c,c1
      86      11      32      48      49  # c1,c,hc
      87      11      32      48      50  # c1,c,hc
      88      14      34      32      33  # c1,c1,hc
      89       3      48      32      33  # c,c1,hc
      90       2      48      32      34  # c,c1,c1
      91      20      34      36      38  # c1,c3h,o3e
      92      18      34      36      39  # c1,c3h,c3h
      93      19      34      36      37  # c1,c3h,hc
      94       2      41      44      34  # c,c1,c1
      95      12      34      44      46  # c1,c1,c1
      96      14      34      44      45  # c1,c1,hc
      97      25      36      34      35  # c3h,c1,hc
      98      14      44      34      35  # c1,c1,hc
      99      13      44      34      36  # c1,c1,c3h
     100      28      36      38      39  # c3h,o3e,c3h
     101      27      36      39      38  # c3h,c3h,o3e
     102       6      41      39      36  # c,c3h,c3h
     103      26      36      39      40  # c3h,c3h,hc
     104      33      37      36      38  # hc,c3h,o3e
     105      26      39      36      37  # c3h,c3h,hc
     106      27      39      36      38  # c3h,c3h,o3e
     107       8      41      39      38  # c,c3h,o3e
     108      33      40      39      38  # hc,c3h,o3e
     109      10      44      41      39  # c1,c,c3h
     110      24      39      41      42  # c3h,c,hc
     111      24      39      41      43  # c3h,c,hc
     112       7      41      39      40  # c,c3h,hc
     113       2      41      44      46  # c,c1,c1
     114       3      41      44      45  # c,c1,hc
     115      11      44      41      42  # c1,c,hc
     116      29      42      41      43  # hc,c,hc
     117      11      44      41      43  # c1,c,hc
     118       2      48      46      44  # c,c1,c1
     119      14      44      46      47  # c1,c1,hc
     120      14      46      44      45  # c1,c1,hc
     121      11      46      48      49  # c1,c,hc
     122      11      46      48      50  # c1,c,hc
     123       3      48      46      47  # c,c1,hc
     124      29      49      48      50  # hc,c,hc
     125       9      51      53      56  # c1,c,c1
     126      11      51      53      54  # c1,c,hc
     127      11      51      53      55  # c1,c,hc
     128      12      51      72      70  # c1,c1,c1
     129      15      51      72      74  # c1,c1,o3e
     130      14      51      72      73  # c1,c1,hc
     131       2      65      68      51  # c,c1,c1
     132      12      51      68      58  # c1,c1,c1
     133      14      51      68      69  # c1,c1,hc
     134       3      53      51      52  # c,c1,hc
     135      14      72      51      52  # c1,c1,hc
     136      14      68      51      52  # c1,c1,hc
     137       2      53      51      72  # c,c1,c1
     138       2      53      51      68  # c,c1,c1
     139       2      53      56      70  # c,c1,c1
     140       2      53      56      58  # c,c1,c1
     141       3      53      56      57  # c,c1,hc
     142      11      56      53      54  # c1,c,hc
     143      29      54      53      55  # hc,c,hc
     144      11      56      53      55  # c1,c,hc
     145      12      56      70      72  # c1,c1,c1
     146      15      56      70      74  # c1,c1,o3e
     147      14      56      70      71  # c1,c1,hc
     148      12      56      58      60  # c1,c1,c1
     149      12      56      58      68  # c1,c1,c1
     150      14      56      58      59  # c1,c1,hc
     151      14      70      56      57  # c1,c1,hc
     152      14      58      56      57  # c1,c1,hc
     153      12      58      56      70  # c1,c1,c1
     154      15      58      60      62  # c1,c1,o3e
     155      12      58      60      63  # c1,c1,c1
     156      14      58      60      61  # c1,c1,hc
     157       2      65      68      58  # c,c1,c1
     158      14      58      68      69  # c1,c1,hc
     159      14      60      58      59  # c1,c1,hc
     160      14      68      58      59  # c1,c1,hc
     161      12      60      58      68  # c1,c1,c1
     162      21      60      62      63  # c1,o3e,c1
     163      15      60      63      62  # c1,c1,o3e
     164       2      65      63      60  # c,c1,c1
     165      14      60      63      64  # c1,c1,hc
     166      30      61      60      62  # hc,c1,o3e
     167      14      63      60      61  # c1,c1,hc
     168      15      63      60      62  # c1,c1,o3e
     169       4      65      63      62  # c,c1,o3e
     170      30      64      63      62  # hc,c1,o3e
     171       9      63      65      68  # c1,c,c1
     172      11      63      65      66  # c1,c,hc
     173      11      63      65      67  # c1,c,hc
     174       3      65      63      64  # c,c1,hc
     175       3      65      68      69  # c,c1,hc
     176      11      68      65      66  # c1,c,hc
     177      29      66      65      67  # hc,c,hc
     178      11      68      65      67  # c1,c,hc
     179      12      68      51      72  # c1,c1,c1
     180      15      70      72      74  # c1,c1,o3e
     181      14      70      72      73  # c1,c1,hc
     182      21      70      74      72  # c1,o3e,c1
     183      14      72      70      71  # c1,c1,hc
     184      30      71      70      74  # hc,c1,o3e
     185      15      72      70      74  # c1,c1,o3e
     186      30      73      72      74  # hc,c1,o3e

Dihedrals

       1      61      26       5       3       1  # oc,c1,c1,oh
       2       9       7       5       3       1  # c,c1,c1,oh
       3      56       6       5       3       1  # hc,c1,c1,oh
       4      30      17      19       3       1  # c1,c1,c1,oh
       5      30      10      19       3       1  # c1,c1,c1,oh
       6      56      20      19       3       1  # hc,c1,c1,oh
       7      36       5       3       1       2  # c1,c1,oh,h
       8      36      19       3       1       2  # c1,c1,oh,h
       9      47       2       1       3       4  # h,oh,c1,hc
      10      35       3       5      26      27  # c1,c1,oc,c1
      11      16      10       7       5       3  # c1,c,c1,c1
      12      24       3       5       7       8  # c1,c1,c,hc
      13      24       3       5       7       9  # c1,c1,c,hc
      14       4      14      17      19       3  # c,c1,c1,c1
      15      25       3      19      17      21  # c1,c1,c1,c1
      16      27       3      19      17      18  # c1,c1,c1,hc
      17       4       7      10      19       3  # c,c1,c1,c1
      18      25       3      19      10      12  # c1,c1,c1,c1
      19      27       3      19      10      11  # c1,c1,c1,hc
      20      55       4       3       5      26  # hc,c1,c1,oc
      21       6       7       5       3       4  # c,c1,c1,hc
      22      53       4       3       5       6  # hc,c1,c1,hc
      23      27      17      19       3       4  # c1,c1,c1,hc
      24      27      10      19       3       4  # c1,c1,c1,hc
      25      53       4       3      19      20  # hc,c1,c1,hc
      26      25       5       3      19      17  # c1,c1,c1,c1
      27      25       5       3      19      10  # c1,c1,c1,c1
      28      27       5       3      19      20  # c1,c1,c1,hc
      29      11      29      27      26       5  # c,c1,oc,c1
      30      35      46      27      26       5  # c1,c1,oc,c1
      31      41       5      26      27      28  # c1,oc,c1,hc
      32      16       5       7      10      12  # c1,c,c1,c1
      33      16       5       7      10      19  # c1,c,c1,c1
      34      17       5       7      10      11  # c1,c,c1,hc
      35      27      19       3       5       6  # c1,c1,c1,hc
      36      41      27      26       5       6  # c1,oc,c1,hc
      37      17      10       7       5       6  # c1,c,c1,hc
      38      48       8       7       5       6  # hc,c,c1,hc
      39      48       9       7       5       6  # hc,c,c1,hc
      40       4       7       5       3      19  # c,c1,c1,c1
      41      11       7       5      26      27  # c,c1,oc,c1
      42       3       7      10      12      14  # c,c1,c1,c
      43       4       7      10      12      23  # c,c1,c1,c1
      44       6       7      10      12      13  # c,c1,c1,hc
      45       4       7      10      19      17  # c,c1,c1,c1
      46       6       7      10      19      20  # c,c1,c1,hc
      47      50       8       7       5      26  # hc,c,c1,oc
      48      24      12      10       7       8  # c1,c1,c,hc
      49      24      19      10       7       8  # c1,c1,c,hc
      50      48       8       7      10      11  # hc,c,c1,hc
      51      50       9       7       5      26  # hc,c,c1,oc
      52      24      12      10       7       9  # c1,c1,c,hc
      53      24      19      10       7       9  # c1,c1,c,hc
      54      48       9       7      10      11  # hc,c,c1,hc
      55      19      10       7       5      26  # c1,c,c1,oc
      56      16      17      14      12      10  # c1,c,c1,c1
      57      24      10      12      14      15  # c1,c1,c,hc
      58      24      10      12      14      16  # c1,c1,c,hc
      59      25      10      12      23      21  # c1,c1,c1,c1
      60      28      10      12      23      25  # c1,c1,c1,o3e
      61      27      10      12      23      24  # c1,c1,c1,hc
      62       4      14      17      19      10  # c,c1,c1,c1
      63      25      10      19      17      21  # c1,c1,c1,c1
      64      27      10      19      17      18  # c1,c1,c1,hc
      65       6      14      12      10      11  # c,c1,c1,hc
      66      27      23      12      10      11  # c1,c1,c1,hc
      67      53      11      10      12      13  # hc,c1,c1,hc
      68      27      17      19      10      11  # c1,c1,c1,hc
      69      53      11      10      19      20  # hc,c1,c1,hc
      70      25      12      10      19      17  # c1,c1,c1,c1
      71      27      12      10      19      20  # c1,c1,c1,hc
      72      16      12      14      17      21  # c1,c,c1,c1
      73      16      12      14      17      19  # c1,c,c1,c1
      74      17      12      14      17      18  # c1,c,c1,hc
      75      25      12      23      21      17  # c1,c1,c1,c1
      76      28      12      23      21      25  # c1,c1,c1,o3e
      77      27      12      23      21      22  # c1,c1,c1,hc
      78      34      12      23      25      21  # c1,c1,o3e,c1
      79      27      19      10      12      13  # c1,c1,c1,hc
      80      17      17      14      12      13  # c1,c,c1,hc
      81      48      15      14      12      13  # hc,c,c1,hc
      82      48      16      14      12      13  # hc,c,c1,hc
      83      27      21      23      12      13  # c1,c1,c1,hc
      84      54      13      12      23      25  # hc,c1,c1,o3e
      85      53      13      12      23      24  # hc,c1,c1,hc
      86       4      14      12      10      19  # c,c1,c1,c1
      87       4      14      12      23      21  # c,c1,c1,c1
      88       7      14      12      23      25  # c,c1,c1,o3e
      89       6      14      12      23      24  # c,c1,c1,hc
      90       4      14      17      21      23  # c,c1,c1,c1
      91       7      14      17      21      25  # c,c1,c1,o3e
      92       6      14      17      21      22  # c,c1,c1,hc
      93       6      14      17      19      20  # c,c1,c1,hc
      94      24      23      12      14      15  # c1,c1,c,hc
      95      24      21      17      14      15  # c1,c1,c,hc
      96      24      19      17      14      15  # c1,c1,c,hc
      97      48      15      14      17      18  # hc,c,c1,hc
      98      24      23      12      14      16  # c1,c1,c,hc
      99      24      21      17      14      16  # c1,c1,c,hc
     100      24      19      17      14      16  # c1,c1,c,hc
     101      48      16      14      17      18  # hc,c,c1,hc
     102      16      17      14      12      23  # c1,c,c1,c1
     103      28      17      21      23      25  # c1,c1,c1,o3e
     104      27      17      21      23      24  # c1,c1,c1,hc
     105      34      17      21      25      23  # c1,c1,o3e,c1
     106      27      23      21      17      18  # c1,c1,c1,hc
     107      54      18      17      21      25  # hc,c1,c1,o3e
     108      53      18      17      21      22  # hc,c1,c1,hc
     109      53      18      17      19      20  # hc,c1,c1,hc
     110      25      19      17      21      23  # c1,c1,c1,c1
     111      28      19      17      21      25  # c1,c1,c1,o3e
     112      27      19      17      21      22  # c1,c1,c1,hc
     113      29      19       3       5      26  # c1,c1,c1,oc
     114      25      19      10      12      23  # c1,c1,c1,c1
     115      27      21      17      19      20  # c1,c1,c1,hc
     116      40      21      25      23      24  # c1,o3e,c1,hc
     117      54      22      21      23      25  # hc,c1,c1,o3e
     118      53      22      21      23      24  # hc,c1,c1,hc
     119      40      23      25      21      22  # c1,o3e,c1,hc
     120      54      24      23      21      25  # hc,c1,c1,o3e
     121      19      32      29      27      26  # c1,c,c1,oc
     122      50      30      29      27      26  # hc,c,c1,oc
     123      50      31      29      27      26  # hc,c,c1,oc
     124      29      44      46      27      26  # c1,c1,c1,oc
     125       8      48      46      27      26  # c,c1,c1,oc
     126      55      47      46      27      26  # hc,c1,c1,oc
     127      16      27      29      32      34  # c1,c,c1,c1
     128       1      48      32      29      27  # c,c1,c,c1
     129      17      27      29      32      33  # c1,c,c1,hc
     130       4      41      44      46      27  # c,c1,c1,c1
     131      25      27      46      44      34  # c1,c1,c1,c1
     132      27      27      46      44      45  # c1,c1,c1,hc
     133      16      32      48      46      27  # c1,c,c1,c1
     134      24      27      46      48      49  # c1,c1,c,hc
     135      24      27      46      48      50  # c1,c1,c,hc
     136      17      32      29      27      28  # c1,c,c1,hc
     137      48      30      29      27      28  # hc,c,c1,hc
     138      48      31      29      27      28  # hc,c,c1,hc
     139      27      44      46      27      28  # c1,c1,c1,hc
     140       6      48      46      27      28  # c,c1,c1,hc
     141      53      28      27      46      47  # hc,c1,c1,hc
     142       4      29      27      46      44  # c,c1,c1,c1
     143       3      29      27      46      48  # c,c1,c1,c
     144       6      29      27      46      47  # c,c1,c1,hc
     145       5      29      32      34      36  # c,c1,c1,c3h
     146       4      29      32      34      44  # c,c1,c1,c1
     147       6      29      32      34      35  # c,c1,c1,hc
     148       1      29      32      48      46  # c,c1,c,c1
     149       2      29      32      48      49  # c,c1,c,hc
     150       2      29      32      48      50  # c,c1,c,hc
     151      24      46      27      29      30  # c1,c1,c,hc
     152      24      34      32      29      30  # c1,c1,c,hc
     153       2      48      32      29      30  # c,c1,c,hc
     154      48      30      29      32      33  # hc,c,c1,hc
     155      24      46      27      29      31  # c1,c1,c,hc
     156      24      34      32      29      31  # c1,c1,c,hc
     157       2      48      32      29      31  # c,c1,c,hc