LAMMPS output created by EMC v9.4.4, build Jul 27 2022 18:02:20

          74  atoms
          85  bonds
         186  angles
         345  dihedrals
         120  impropers

           8  atom types
          13  bond types
          33  angle types
          61  dihedral types
          33  improper types

             0     93.6506812  xlo xhi
             0     93.6506812  ylo yhi
             0     93.6506812  zlo zhi

Masses

       1   12.01115  # c
       2   12.01115  # c1
       3   12.01115  # c1
       4    1.00797  # h
       5    1.00797  # hc
       6   15.99940  # o3e
       7   15.99940  # oc
       8   15.99940  # oh

Atoms

       1       1   8 -0.5571  76.8275457008   6.1126028349  20.6835191816  # oh
       2       1   4  0.4241  76.9186464512   6.5702177437  19.8719279138  # h
       3       1   2  0.0800  78.0589868478   5.8218627015  21.3059341169  # c1
       4       1   5  0.0530  77.8905403388   4.8743469520  21.8347323539  # hc
       5       1   2  0.0800  79.3072584017   5.6922564619  20.3115411296  # c1
       6       1   5  0.0530  79.0605764360   6.1324250458  19.2986311794  # hc
       7       1   7 -0.2660  79.7434825603   4.2987737975  20.3231188437  # oc
       8       1   2  0.0800  81.0822822396   4.0189579650  19.8874049862  # c1
       9       1   5  0.0530  81.5837256882   4.8519006445  19.3487673969  # hc
      10       1   1 -0.1060  81.0618979742   2.7266540981  18.9476971337  # c
      11       1   5  0.0530  81.4823612485   2.8922883903  17.9511690880  # hc
      12       1   5  0.0530  80.0771808910   2.2888209704  18.8049575229  # hc
      13       1   2 -0.0530  81.9210657000   1.8042875678  19.7502588177  # c1
      14       1   5  0.0530  82.2317681801   0.9870658672  19.0957587369  # hc
      15       1   2 -0.0530  81.2077837459   1.4028395675  21.0797767095  # c1
      16       1   5  0.0530  80.1849698808   1.1722522354  20.9407926585  # hc
      17       1   2  0.0800  81.9022995413   0.2611539089  21.7983284294  # c1
      18       1   5  0.0530  82.4976388285  -0.5324079132  21.2846586993  # hc
      19       1   6 -0.2660  81.2501684158  -0.0698299322  23.0213833429  # o3e
      20       1   2  0.0800  82.4439880358   0.7634421249  23.1350885990  # c1
      21       1   5  0.0530  83.2387329695   0.3297951168  23.6546968831  # hc
      22       1   1 -0.1060  82.2640150835   2.2740675694  23.3040460249  # c
      23       1   5  0.0530  81.7340158038   2.5764396787  24.1730230634  # hc
      24       1   5  0.0530  83.2945536503   2.6197512240  23.3714540904  # hc
      25       1   2 -0.0530  81.3932480079   2.6226434478  22.0118489541  # c1
      26       1   5  0.0530  80.4216906030   2.9311180663  22.4031941955  # hc
      27       1   2 -0.0530  82.0413037271   3.6557834074  21.0570064639  # c1
      28       1   5  0.0530  82.5189984254   4.4950246103  21.5419023680  # hc
      29       1   1 -0.1060  83.0141879827   2.7427235882  20.2191772944  # c
      30       1   5  0.0530  83.8391359412   2.3253751141  20.8617269840  # hc
      31       1   5  0.0530  83.5167611178   3.2475907571  19.3584458054  # hc
      32       1   2 -0.0530  80.3072881886   6.5644211286  21.1265284103  # c1
      33       1   5  0.0530  81.3179637357   6.2377438139  20.9436878735  # hc
      34       1   2 -0.0530  80.0058211486   8.0256935517  20.8751665763  # c1
      35       1   5  0.0530  80.7180641226   8.4761237827  21.5962784113  # hc
      36       1   3  0.0800  80.1536856010   8.9425620743  19.6628459146  # c1
      37       1   5  0.0530  81.0702041595   9.0209037839  19.0661378354  # hc
      38       1   6 -0.2660  78.9293991473   9.4036479078  19.0966002389  # o3e
      39       1   3  0.0800  79.4090255872  10.1400124072  20.2288140074  # c1
      40       1   5  0.0530  79.7379202132  11.2037021317  20.0561815273  # hc
      41       1   1 -0.1060  78.6175975051   9.8420849119  21.6050920107  # c
      42       1   5  0.0530  79.2172177360  10.2269507811  22.4012519458  # hc
      43       1   5  0.0530  77.5907269777  10.2809522897  21.6941806255  # hc
      44       1   2 -0.0530  78.5853944031   8.2888202768  21.4805979892  # c1
      45       1   5  0.0530  77.7428715334   8.2182198646  20.7457116652  # hc
      46       1   2 -0.0530  78.4232951407   6.9447228995  22.3526709900  # c1
      47       1   5  0.0530  77.7203243049   7.1026824855  23.1603133864  # hc
      48       1   1 -0.1060  79.8153651005   6.4608093275  22.6407295487  # c
      49       1   5  0.0530  79.8912355027   5.5631086420  23.2242560016  # hc
      50       1   5  0.0530  80.4038883405   7.2007633905  23.1358238649  # hc
      51       2   2 -0.0530  60.5356772536  18.4910520952  85.2881657987  # c1
      52       2   5  0.0530  59.4686810509  18.7508479710  85.5263933921  # hc
      53       2   1 -0.1060  61.4618113713  19.7012742586  85.4679778396  # c
      54       2   5  0.0530  61.3233168303  20.6311487771  84.7700146002  # hc
      55       2   5  0.0530  61.4137653974  20.1910285810  86.4700017381  # hc
      56       2   2 -0.0530  62.7615152401  18.8343509929  85.1884493277  # c1
      57       2   5  0.0530  63.5667801614  19.5155154877  85.1424413508  # hc
      58       2   2  0.0800  62.3434648529  17.8223757133  86.2599296741  # c1
      59       2   5  0.0530  62.4915003458  18.5843982780  87.0386850792  # hc
      60       2   2  0.0800  61.0402926943  17.2153813785  86.0747891421  # c1
      61       2   5  0.0530  61.0705146680  16.2727142981  85.4835097818  # hc
      62       2   6 -0.2660  61.9987519642  16.8928468957  87.2396316634  # o3e
      63       2   2 -0.0530  62.3767944119  18.3189818485  83.7641193745  # c1
      64       2   5  0.0530  62.6042753836  19.1637281248  83.0731766045  # hc
      65       2   2  0.0800  62.8712212966  17.0404881308  83.1562194162  # c1
      66       2   5  0.0530  63.8354867632  16.9596267360  82.6080158890  # hc
      67       2   6 -0.2660  62.5175463392  15.8481183221  83.8449666378  # o3e
      68       2   2  0.0800  61.6875400560  16.2421940238  82.7144836137  # c1
      69       2   5  0.0530  61.6175278469  15.5340159927  81.8280451579  # hc
      70       2   1 -0.1060  60.3745169003  16.9613117671  83.1551208000  # c
      71       2   5  0.0530  59.6899673962  16.3054445302  83.7115601485  # hc
      72       2   5  0.0530  59.7658337021  17.1187971987  82.2974322948  # hc
      73       2   2 -0.0530  60.8146057211  18.3025721556  83.8104513260  # c1
      74       2   5  0.0530  60.3899703843  19.1392881653  83.1953014405  # hc

Bonds

       1       9       3       1  # c1,oh
       2      13       2       1  # h,oh
       3       4       3       5  # c1,c1
       4       4       3      46  # c1,c1
       5       6       3       4  # c1,hc
       6       4       5      32  # c1,c1
       7       8       5       7  # c1,oc
       8       6       5       6  # c1,hc
       9       8       8       7  # c1,oc
      10       1      10       8  # c,c1
      11       4       8      27  # c1,c1
      12       6       8       9  # c1,hc
      13       1      10      13  # c,c1
      14       3      10      11  # c,hc
      15       3      10      12  # c,hc
      16       4      13      15  # c1,c1
      17       1      29      13  # c,c1
      18       6      13      14  # c1,hc
      19       4      15      17  # c1,c1
      20       4      15      25  # c1,c1
      21       6      15      16  # c1,hc
      22       4      17      20  # c1,c1
      23       7      17      19  # c1,o3e
      24       6      17      18  # c1,hc
      25       7      20      19  # c1,o3e
      26       1      22      20  # c,c1
      27       6      20      21  # c1,hc
      28       1      22      25  # c,c1
      29       3      22      23  # c,hc
      30       3      22      24  # c,hc
      31       4      25      27  # c1,c1
      32       6      25      26  # c1,hc
      33       1      29      27  # c,c1
      34       6      27      28  # c1,hc
      35       3      29      30  # c,hc
      36       3      29      31  # c,hc
      37       4      32      34  # c1,c1
      38       1      48      32  # c,c1
      39       6      32      33  # c1,hc
      40       5      34      36  # c1,c1
      41       4      34      44  # c1,c1
      42       6      34      35  # c1,hc
      43      10      36      39  # c1,c1
      44      12      36      38  # c1,o3e
      45      11      36      37  # c1,hc
      46      12      39      38  # c1,o3e
      47       2      41      39  # c,c1
      48      11      39      40  # c1,hc
      49       1      41      44  # c,c1
      50       3      41      42  # c,hc
      51       3      41      43  # c,hc
      52       4      44      46  # c1,c1
      53       6      44      45  # c1,hc
      54       1      48      46  # c,c1
      55       6      46      47  # c1,hc
      56       3      48      49  # c,hc
      57       3      48      50  # c,hc
      58       1      53      51  # c,c1
      59       4      51      60  # c1,c1
      60       4      51      73  # c1,c1
      61       6      51      52  # c1,hc
      62       1      53      56  # c,c1
      63       3      53      54  # c,hc
      64       3      53      55  # c,hc
      65       4      56      63  # c1,c1
      66       4      56      58  # c1,c1
      67       6      56      57  # c1,hc
      68       4      58      60  # c1,c1
      69       7      58      62  # c1,o3e
      70       6      58      59  # c1,hc
      71       7      60      62  # c1,o3e
      72       6      60      61  # c1,hc
      73       4      63      65  # c1,c1
      74       4      63      73  # c1,c1
      75       6      63      64  # c1,hc
      76       4      65      68  # c1,c1
      77       7      65      67  # c1,o3e
      78       6      65      66  # c1,hc
      79       7      68      67  # c1,o3e
      80       1      70      68  # c,c1
      81       6      68      69  # c1,hc
      82       1      70      73  # c,c1
      83       3      70      71  # c,hc
      84       3      70      72  # c,hc
      85       6      73      74  # c1,hc

Angles

       1      17       5       3       1  # c1,c1,oh
       2      17      46       3       1  # c1,c1,oh
       3      32       4       3       1  # hc,c1,oh
       4      23       3       1       2  # c1,oh,h
       5      12       3       5      32  # c1,c1,c1
       6      16       3       5       7  # c1,c1,oc
       7      14       3       5       6  # c1,c1,hc
       8      12       3      46      44  # c1,c1,c1
       9       2      48      46       3  # c,c1,c1
      10      14       3      46      47  # c1,c1,hc
      11      14       5       3       4  # c1,c1,hc
      12      14      46       3       4  # c1,c1,hc
      13      12       5       3      46  # c1,c1,c1
      14      12       5      32      34  # c1,c1,c1
      15       2      48      32       5  # c,c1,c1
      16      14       5      32      33  # c1,c1,hc
      17      22       5       7       8  # c1,oc,c1
      18      14      32       5       6  # c1,c1,hc
      19      31       6       5       7  # hc,c1,oc
      20      16      32       5       7  # c1,c1,oc
      21       5      10       8       7  # c,c1,oc
      22      16      27       8       7  # c1,c1,oc
      23      31       9       8       7  # hc,c1,oc
      24       9       8      10      13  # c1,c,c1
      25      11       8      10      11  # c1,c,hc
      26      11       8      10      12  # c1,c,hc
      27      12       8      27      25  # c1,c1,c1
      28       2      29      27       8  # c,c1,c1
      29      14       8      27      28  # c1,c1,hc
      30       3      10       8       9  # c,c1,hc
      31      14      27       8       9  # c1,c1,hc
      32       2      10       8      27  # c,c1,c1
      33       2      10      13      15  # c,c1,c1
      34       1      10      13      29  # c,c1,c
      35       3      10      13      14  # c,c1,hc
      36      11      13      10      11  # c1,c,hc
      37      29      11      10      12  # hc,c,hc
      38      11      13      10      12  # c1,c,hc
      39      12      13      15      17  # c1,c1,c1
      40      12      13      15      25  # c1,c1,c1
      41      14      13      15      16  # c1,c1,hc
      42       9      13      29      27  # c1,c,c1
      43      11      13      29      30  # c1,c,hc
      44      11      13      29      31  # c1,c,hc
      45      14      15      13      14  # c1,c1,hc
      46       3      29      13      14  # c,c1,hc
      47       2      29      13      15  # c,c1,c1
      48      12      15      17      20  # c1,c1,c1
      49      15      15      17      19  # c1,c1,o3e
      50      14      15      17      18  # c1,c1,hc
      51       2      22      25      15  # c,c1,c1
      52      12      15      25      27  # c1,c1,c1
      53      14      15      25      26  # c1,c1,hc
      54      14      17      15      16  # c1,c1,hc
      55      14      25      15      16  # c1,c1,hc
      56      12      17      15      25  # c1,c1,c1
      57       2      22      20      17  # c,c1,c1
      58      15      17      20      19  # c1,c1,o3e
      59      14      17      20      21  # c1,c1,hc
      60      21      17      19      20  # c1,o3e,c1
      61      14      20      17      18  # c1,c1,hc
      62      30      18      17      19  # hc,c1,o3e
      63      15      20      17      19  # c1,c1,o3e
      64       4      22      20      19  # c,c1,o3e
      65      30      21      20      19  # hc,c1,o3e
      66       9      20      22      25  # c1,c,c1
      67      11      20      22      23  # c1,c,hc
      68      11      20      22      24  # c1,c,hc
      69       3      22      20      21  # c,c1,hc
      70       2      22      25      27  # c,c1,c1
      71       3      22      25      26  # c,c1,hc
      72      11      25      22      23  # c1,c,hc
      73      29      23      22      24  # hc,c,hc
      74      11      25      22      24  # c1,c,hc
      75       2      29      27      25  # c,c1,c1
      76      14      25      27      28  # c1,c1,hc
      77      14      27      25      26  # c1,c1,hc
      78      11      27      29      30  # c1,c,hc
      79      11      27      29      31  # c1,c,hc
      80       3      29      27      28  # c,c1,hc
      81      29      30      29      31  # hc,c,hc
      82      13      32      34      36  # c1,c1,c1
      83      12      32      34      44  # c1,c1,c1
      84      14      32      34      35  # c1,c1,hc
      85       9      32      48      46  # c1,c,c1
      86      11      32      48      49  # c1,c,hc
      87      11      32      48      50  # c1,c,hc
      88      14      34      32      33  # c1,c1,hc
      89       3      48      32      33  # c,c1,hc
      90       2      48      32      34  # c,c1,c1
      91      18      34      36      39  # c1,c1,c1
      92      20      34      36      38  # c1,c1,o3e
      93      19      34      36      37  # c1,c1,hc
      94       2      41      44      34  # c,c1,c1
      95      12      34      44      46  # c1,c1,c1
      96      14      34      44      45  # c1,c1,hc
      97      25      36      34      35  # c1,c1,hc
      98      14      44      34      35  # c1,c1,hc
      99      13      44      34      36  # c1,c1,c1
     100       6      41      39      36  # c,c1,c1
     101      27      36      39      38  # c1,c1,o3e
     102      26      36      39      40  # c1,c1,hc
     103      28      36      38      39  # c1,o3e,c1
     104      26      39      36      37  # c1,c1,hc
     105      33      37      36      38  # hc,c1,o3e
     106      27      39      36      38  # c1,c1,o3e
     107       8      41      39      38  # c,c1,o3e
     108      33      40      39      38  # hc,c1,o3e
     109      10      44      41      39  # c1,c,c1
     110      24      39      41      42  # c1,c,hc
     111      24      39      41      43  # c1,c,hc
     112       7      41      39      40  # c,c1,hc
     113       2      41      44      46  # c,c1,c1
     114       3      41      44      45  # c,c1,hc
     115      11      44      41      42  # c1,c,hc
     116      29      42      41      43  # hc,c,hc
     117      11      44      41      43  # c1,c,hc
     118       2      48      46      44  # c,c1,c1
     119      14      44      46      47  # c1,c1,hc
     120      14      46      44      45  # c1,c1,hc
     121      11      46      48      49  # c1,c,hc
     122      11      46      48      50  # c1,c,hc
     123       3      48      46      47  # c,c1,hc
     124      29      49      48      50  # hc,c,hc
     125       9      51      53      56  # c1,c,c1
     126      11      51      53      54  # c1,c,hc
     127      11      51      53      55  # c1,c,hc
     128      12      51      60      58  # c1,c1,c1
     129      15      51      60      62  # c1,c1,o3e
     130      14      51      60      61  # c1,c1,hc
     131       2      70      73      51  # c,c1,c1
     132      12      51      73      63  # c1,c1,c1
     133      14      51      73      74  # c1,c1,hc
     134       3      53      51      52  # c,c1,hc
     135      14      60      51      52  # c1,c1,hc
     136      14      73      51      52  # c1,c1,hc
     137       2      53      51      60  # c,c1,c1
     138       2      53      51      73  # c,c1,c1
     139       2      53      56      63  # c,c1,c1
     140       2      53      56      58  # c,c1,c1
     141       3      53      56      57  # c,c1,hc
     142      11      56      53      54  # c1,c,hc
     143      29      54      53      55  # hc,c,hc
     144      11      56      53      55  # c1,c,hc
     145      12      56      63      65  # c1,c1,c1
     146      12      56      63      73  # c1,c1,c1
     147      14      56      63      64  # c1,c1,hc
     148      12      56      58      60  # c1,c1,c1
     149      15      56      58      62  # c1,c1,o3e
     150      14      56      58      59  # c1,c1,hc
     151      14      63      56      57  # c1,c1,hc
     152      14      58      56      57  # c1,c1,hc
     153      12      58      56      63  # c1,c1,c1
     154      15      58      60      62  # c1,c1,o3e
     155      14      58      60      61  # c1,c1,hc
     156      21      58      62      60  # c1,o3e,c1
     157      14      60      58      59  # c1,c1,hc
     158      30      59      58      62  # hc,c1,o3e
     159      15      60      58      62  # c1,c1,o3e
     160      12      60      51      73  # c1,c1,c1
     161      30      61      60      62  # hc,c1,o3e
     162      12      63      65      68  # c1,c1,c1
     163      15      63      65      67  # c1,c1,o3e
     164      14      63      65      66  # c1,c1,hc
     165       2      70      73      63  # c,c1,c1
     166      14      63      73      74  # c1,c1,hc
     167      14      65      63      64  # c1,c1,hc
     168      14      73      63      64  # c1,c1,hc
     169      12      65      63      73  # c1,c1,c1
     170       2      70      68      65  # c,c1,c1
     171      15      65      68      67  # c1,c1,o3e
     172      14      65      68      69  # c1,c1,hc
     173      21      65      67      68  # c1,o3e,c1
     174      14      68      65      66  # c1,c1,hc
     175      30      66      65      67  # hc,c1,o3e
     176      15      68      65      67  # c1,c1,o3e
     177       4      70      68      67  # c,c1,o3e
     178      30      69      68      67  # hc,c1,o3e
     179       9      68      70      73  # c1,c,c1
     180      11      68      70      71  # c1,c,hc
     181      11      68      70      72  # c1,c,hc
     182       3      70      68      69  # c,c1,hc
     183       3      70      73      74  # c,c1,hc
     184      11      73      70      71  # c1,c,hc
     185      29      71      70      72  # hc,c,hc
     186      11      73      70      72  # c1,c,hc

Dihedrals

       1      30      32       5       3       1  # c1,c1,c1,oh
       2      61       7       5       3       1  # oc,c1,c1,oh
       3      56       6       5       3       1  # hc,c1,c1,oh
       4      30      44      46       3       1  # c1,c1,c1,oh
       5       9      48      46       3       1  # c,c1,c1,oh
       6      56      47      46       3       1  # hc,c1,c1,oh
       7      36       5       3       1       2  # c1,c1,oh,h
       8      36      46       3       1       2  # c1,c1,oh,h
       9      47       2       1       3       4  # h,oh,c1,hc
      10      25       3       5      32      34  # c1,c1,c1,c1
      11       4      48      32       5       3  # c,c1,c1,c1
      12      27       3       5      32      33  # c1,c1,c1,hc
      13      35       3       5       7       8  # c1,c1,oc,c1
      14       4      41      44      46       3  # c,c1,c1,c1
      15      25       3      46      44      34  # c1,c1,c1,c1
      16      27       3      46      44      45  # c1,c1,c1,hc
      17      16      32      48      46       3  # c1,c,c1,c1
      18      24       3      46      48      49  # c1,c1,c,hc
      19      24       3      46      48      50  # c1,c1,c,hc
      20      27      32       5       3       4  # c1,c1,c1,hc
      21      55       4       3       5       7  # hc,c1,c1,oc
      22      53       4       3       5       6  # hc,c1,c1,hc
      23      27      44      46       3       4  # c1,c1,c1,hc
      24       6      48      46       3       4  # c,c1,c1,hc
      25      53       4       3      46      47  # hc,c1,c1,hc
      26      25       5       3      46      44  # c1,c1,c1,c1
      27       4      48      46       3       5  # c,c1,c1,c1
      28      27       5       3      46      47  # c1,c1,c1,hc
      29      26       5      32      34      36  # c1,c1,c1,c1
      30      25       5      32      34      44  # c1,c1,c1,c1
      31      27       5      32      34      35  # c1,c1,c1,hc
      32      16      46      48      32       5  # c1,c,c1,c1
      33      24       5      32      48      49  # c1,c1,c,hc
      34      24       5      32      48      50  # c1,c1,c,hc
      35      11      10       8       7       5  # c,c1,oc,c1
      36      35      27       8       7       5  # c1,c1,oc,c1
      37      41       5       7       8       9  # c1,oc,c1,hc
      38      27      46       3       5       6  # c1,c1,c1,hc
      39      27      34      32       5       6  # c1,c1,c1,hc
      40       6      48      32       5       6  # c,c1,c1,hc
      41      53       6       5      32      33  # hc,c1,c1,hc
      42      41       8       7       5       6  # c1,oc,c1,hc
      43      29      46       3       5       7  # c1,c1,c1,oc
      44      29      34      32       5       7  # c1,c1,c1,oc
      45       8      48      32       5       7  # c,c1,c1,oc
      46      55      33      32       5       7  # hc,c1,c1,oc
      47      19      13      10       8       7  # c1,c,c1,oc
      48      50      11      10       8       7  # hc,c,c1,oc
      49      50      12      10       8       7  # hc,c,c1,oc
      50      29      25      27       8       7  # c1,c1,c1,oc
      51       8      29      27       8       7  # c,c1,c1,oc
      52      55      28      27       8       7  # hc,c1,c1,oc
      53      35      32       5       7       8  # c1,c1,oc,c1
      54      16       8      10      13      15  # c1,c,c1,c1
      55       1      29      13      10       8  # c,c1,c,c1
      56      17       8      10      13      14  # c1,c,c1,hc
      57       4      22      25      27       8  # c,c1,c1,c1
      58      25       8      27      25      15  # c1,c1,c1,c1
      59      27       8      27      25      26  # c1,c1,c1,hc
      60      16      13      29      27       8  # c1,c,c1,c1
      61      24       8      27      29      30  # c1,c1,c,hc
      62      24       8      27      29      31  # c1,c1,c,hc
      63      17      13      10       8       9  # c1,c,c1,hc
      64      48      11      10       8       9  # hc,c,c1,hc
      65      48      12      10       8       9  # hc,c,c1,hc
      66      27      25      27       8       9  # c1,c1,c1,hc
      67       6      29      27       8       9  # c,c1,c1,hc
      68      53       9       8      27      28  # hc,c1,c1,hc
      69       4      10       8      27      25  # c,c1,c1,c1
      70       3      10       8      27      29  # c,c1,c1,c
      71       6      10       8      27      28  # c,c1,c1,hc
      72       4      10      13      15      17  # c,c1,c1,c1
      73       4      10      13      15      25  # c,c1,c1,c1
      74       6      10      13      15      16  # c,c1,c1,hc
      75       1      10      13      29      27  # c,c1,c,c1
      76       2      10      13      29      30  # c,c1,c,hc
      77       2      10      13      29      31  # c,c1,c,hc
      78      24      27       8      10      11  # c1,c1,c,hc
      79      24      15      13      10      11  # c1,c1,c,hc
      80       2      29      13      10      11  # c,c1,c,hc
      81      48      11      10      13      14  # hc,c,c1,hc
      82      24      27       8      10      12  # c1,c1,c,hc
      83      24      15      13      10      12  # c1,c1,c,hc
      84       2      29      13      10      12  # c,c1,c,hc
      85      48      12      10      13      14  # hc,c,c1,hc
      86      16      13      10       8      27  # c1,c,c1,c1
      87      25      13      15      17      20  # c1,c1,c1,c1
      88      28      13      15      17      19  # c1,c1,c1,o3e
      89      27      13      15      17      18  # c1,c1,c1,hc
      90       4      22      25      15      13  # c,c1,c1,c1
      91      25      13      15      25      27  # c1,c1,c1,c1
      92      27      13      15      25      26  # c1,c1,c1,hc
      93      16      13      29      27      25  # c1,c,c1,c1
      94      17      13      29      27      28  # c1,c,c1,hc
      95      27      17      15      13      14  # c1,c1,c1,hc
      96      27      25      15      13      14  # c1,c1,c1,hc
      97      53      14      13      15      16  # hc,c1,c1,hc
      98      17      27      29      13      14  # c1,c,c1,hc
      99      48      30      29      13      14  # hc,c,c1,hc
     100      48      31      29      13      14  # hc,c,c1,hc
     101      16      27      29      13      15  # c1,c,c1,c1
     102      24      15      13      29      30  # c1,c1,c,hc
     103      24      15      13      29      31  # c1,c1,c,hc
     104       4      22      20      17      15  # c,c1,c1,c1
     105      28      15      17      20      19  # c1,c1,c1,o3e
     106      27      15      17      20      21  # c1,c1,c1,hc
     107      34      15      17      19      20  # c1,c1,o3e,c1
     108      16      20      22      25      15  # c1,c,c1,c1
     109      24      15      25      22      23  # c1,c1,c,hc
     110      24      15      25      22      24  # c1,c1,c,hc
     111       4      29      27      25      15  # c,c1,c1,c1
     112      27      15      25      27      28  # c1,c1,c1,hc
     113       6      29      13      15      16  # c,c1,c1,hc
     114      27      20      17      15      16  # c1,c1,c1,hc
     115      54      16      15      17      19  # hc,c1,c1,o3e
     116      53      16      15      17      18  # hc,c1,c1,hc
     117       6      22      25      15      16  # c,c1,c1,hc
     118      27      27      25      15      16  # c1,c1,c1,hc
     119      53      16      15      25      26  # hc,c1,c1,hc
     120       4      29      13      15      17  # c,c1,c1,c1
     121       4      22      25      15      17  # c,c1,c1,c1
     122      25      17      15      25      27  # c1,c1,c1,c1
     123      27      17      15      25      26  # c1,c1,c1,hc
     124      16      25      22      20      17  # c1,c,c1,c1
     125      24      17      20      22      23  # c1,c1,c,hc
     126      24      17      20      22      24  # c1,c1,c,hc
     127      10      22      20      19      17  # c,c1,o3e,c1
     128      40      17      19      20      21  # c1,o3e,c1,hc
     129      27      25      15      17      18  # c1,c1,c1,hc
     130       6      22      20      17      18  # c,c1,c1,hc
     131      54      18      17      20      19  # hc,c1,c1,o3e
     132      53      18      17      20      21  # hc,c1,c1,hc
     133      40      20      19      17      18  # c1,o3e,c1,hc
     134      28      25      15      17      19  # c1,c1,c1,o3e
     135       7      22      20      17      19  # c,c1,c1,o3e
     136      54      21      20      17      19  # hc,c1,c1,o3e
     137      18      25      22      20      19  # c1,c,c1,o3e
     138      49      23      22      20      19  # hc,c,c1,o3e
     139      49      24      22      20      19  # hc,c,c1,o3e
     140      25      20      17      15      25  # c1,c1,c1,c1
     141      16      20      22      25      27  # c1,c,c1,c1
     142      17      20      22      25      26  # c1,c,c1,hc
     143      17      25      22      20      21  # c1,c,c1,hc
     144      48      23      22      20      21  # hc,c,c1,hc
     145      48      24      22      20      21  # hc,c,c1,hc
     146       3      22      25      27      29  # c,c1,c1,c
     147       6      22      25      27      28  # c,c1,c1,hc
     148      24      27      25      22      23  # c1,c1,c,hc
     149      48      23      22      25      26  # hc,c,c1,hc
     150      24      27      25      22      24  # c1,c1,c,hc
     151      48      24      22      25      26  # hc,c,c1,hc
     152      24      25      27      29      30  # c1,c1,c,hc
     153      24      25      27      29      31  # c1,c1,c,hc
     154       4      29      13      15      25  # c,c1,c1,c1
     155       6      29      27      25      26  # c,c1,c1,hc
     156      53      26      25      27      28  # hc,c1,c1,hc
     157      48      30      29      27      28  # hc,c,c1,hc
     158      48      31      29      27      28  # hc,c,c1,hc