LAMMPS output created by EMC v9.4.4, build Jul 27 2022 18:02:20

          74  atoms
          85  bonds
         186  angles
         345  dihedrals
         120  impropers

           8  atom types
          13  bond types
          33  angle types
          61  dihedral types
          33  improper types

             0     93.6506812  xlo xhi
             0     93.6506812  ylo yhi
             0     93.6506812  zlo zhi

Masses

       1   12.01115  # c
       2   12.01115  # c1
       3   12.01115  # c3h
       4    1.00797  # h
       5    1.00797  # hc
       6   15.99940  # o3e
       7   15.99940  # oc
       8   15.99940  # oh

Atoms

       1       1   8 -0.5571   8.8581030778  56.0155427244   5.8988212334  # oh
       2       1   4  0.4241   9.3532993376  55.5509835381   5.2963826863  # h
       3       1   2  0.0800   7.4641325279  56.0085181531   5.6986761794  # c1
       4       1   5  0.0530   7.1907728374  55.1233518266   5.0847774576  # hc
       5       1   2  0.0800   6.7418582357  56.1205160292   7.1377993111  # c1
       6       1   5  0.0530   7.3620694546  56.3260137238   8.0011555062  # hc
       7       1   7 -0.2660   5.9801352001  54.9242575481   7.4373202425  # oc
       8       1   2  0.0800   5.8247660241  54.7068344390   8.8789293829  # c1
       9       1   5  0.0530   5.3952563647  55.6572383560   9.3409799884  # hc
      10       1   1 -0.1060   4.8955236330  53.4918584106   9.2026537546  # c
      11       1   5  0.0530   4.2950791753  53.5381808492  10.0844645573  # hc
      12       1   5  0.0530   4.2321351284  53.2192681855   8.3246003842  # hc
      13       1   2 -0.0530   5.9499862461  52.3608061833   9.3886621568  # c1
      14       1   5  0.0530   5.5404464220  51.4159668511   9.8382566907  # hc
      15       1   2 -0.0530   6.9223476804  52.2191114060   8.2515592895  # c1
      16       1   5  0.0530   6.3141836284  52.4324850677   7.3354883250  # hc
      17       1   2  0.0800   7.6551039314  50.9061230944   8.0225584461  # c1
      18       1   5  0.0530   7.0625850226  50.0995126947   8.3594477729  # hc
      19       1   6 -0.2660   8.5602316828  50.9865817440   6.8831804979  # o3e
      20       1   2  0.0800   9.1008027726  51.1381750459   8.1883135261  # c1
      21       1   5  0.0530   9.7837436098  50.3943541901   8.6513377219  # hc
      22       1   1 -0.1060   9.3576045536  52.6374613739   8.6297812003  # c
      23       1   5  0.0530   9.7619164759  52.5138291373   9.6768103156  # hc
      24       1   5  0.0530  10.2213025679  53.1144797448   8.0371982112  # hc
      25       1   2 -0.0530   8.0115725470  53.4448252715   8.5143193751  # c1
      26       1   5  0.0530   8.1820259015  54.0611315644   7.6143565634  # hc
      27       1   2 -0.0530   7.2098108719  54.2622746507   9.5792956866  # c1
      28       1   5  0.0530   7.7777525593  55.0151597422  10.1343805479  # hc
      29       1   1 -0.1060   6.7868747327  53.0441710159  10.5039043259  # c
      30       1   5  0.0530   7.6180856837  52.4412898994  10.8806020561  # hc
      31       1   5  0.0530   6.2246670245  53.3647586303  11.4095958324  # hc
      32       1   2 -0.0530   5.8291409877  57.3383230794   6.8318833746  # c1
      33       1   5  0.0530   5.3679803757  57.7158516191   7.7587795570  # hc
      34       1   2 -0.0530   4.7842006185  57.3355771265   5.5804548088  # c1
      35       1   5  0.0530   4.5315758341  58.3833454775   5.6948482333  # hc
      36       1   3  0.0800   3.4399026253  56.6452760966   5.1431045515  # c3h
      37       1   5  0.0530   2.8606799447  55.9941055064   5.7404688518  # hc
      38       1   6 -0.2660   2.6907884584  57.6890109793   4.4313301676  # o3e
      39       1   3  0.0800   3.4962191766  56.7558695103   3.6374255030  # c3h
      40       1   5  0.0530   2.8756383018  56.2196466489   2.9700543022  # hc
      41       1   1 -0.1060   4.8137715784  57.4899300176   3.1399516538  # c
      42       1   5  0.0530   5.2753252095  57.2257567776   2.1669101805  # hc
      43       1   5  0.0530   4.5552282705  58.5450089904   3.0455549761  # hc
      44       1   2 -0.0530   5.7360357203  57.1324094024   4.3432012495  # c1
      45       1   5  0.0530   5.7289523733  56.0471561223   4.1674882701  # hc
      46       1   2 -0.0530   7.1164631373  57.3451934477   4.9907278891  # c1
      47       1   5  0.0530   7.9186619135  57.7999679917   4.4290714018  # hc
      48       1   1 -0.1060   6.9392109381  58.1495400329   6.2994187859  # c
      49       1   5  0.0530   7.8422209762  58.1981822858   6.8729341560  # hc
      50       1   5  0.0530   6.6389077794  59.1413047581   6.2025051506  # hc
      51       2   2 -0.0530   1.2115394636  33.6766645683   5.4575121772  # c1
      52       2   5  0.0530   1.8481779265  34.5090649542   5.7898572085  # hc
      53       2   1 -0.1060  -0.0710494775  33.4369194139   6.2266706022  # c
      54       2   5  0.0530  -0.8238308388  34.1453971122   6.3189561511  # hc
      55       2   5  0.0530   0.1377427218  33.1754482385   7.3022212589  # hc
      56       2   2 -0.0530  -0.5895781055  32.3014054386   5.3809189378  # c1
      57       2   5  0.0530  -1.5991381986  31.9059942291   5.5701336500  # hc
      58       2   2  0.0800  -0.3797255001  32.8156503140   3.9718507872  # c1
      59       2   5  0.0530  -0.5313657671  32.1254520594   3.1107574211  # hc
      60       2   2  0.0800   0.6408412345  33.8556902629   4.0083358717  # c1
      61       2   5  0.0530   1.3847350447  33.9927970783   3.1329033654  # hc
      62       2   6 -0.2660  -0.7199859388  34.2078345672   3.8356853274  # o3e
      63       2   2 -0.0530   0.5627296507  31.3013304329   5.5969418300  # c1
      64       2   5  0.0530   0.3421616744  30.8222596843   6.6023580560  # hc
      65       2   2  0.0800   0.8926576122  30.1249955858   4.7209218481  # c1
      66       2   5  0.0530   0.1366055955  29.5098487206   4.1843213160  # hc
      67       2   6 -0.2660   1.9787459367  29.3921573707   5.4616190746  # o3e
      68       2   2  0.0800   2.3203273630  30.1823343107   4.3281993179  # c1
      69       2   5  0.0530   2.6908375862  29.8240519745   3.3668536990  # hc
      70       2   1 -0.1060   2.9051419424  31.4946036231   4.7756114100  # c
      71       2   5  0.0530   3.9534443522  31.3615571630   5.1575834913  # hc
      72       2   5  0.0530   3.0672465741  32.1491340973   3.8967036030  # hc
      73       2   2 -0.0530   1.8539533302  32.1917850773   5.7424586884  # c1
      74       2   5  0.0530   2.3132288026  32.1129389208   6.7462520027  # hc

Bonds

       1       9       3       1  # c1,oh
       2      13       2       1  # h,oh
       3       4       3       5  # c1,c1
       4       4       3      46  # c1,c1
       5       6       3       4  # c1,hc
       6       4       5      32  # c1,c1
       7       8       5       7  # c1,oc
       8       6       5       6  # c1,hc
       9       8       8       7  # c1,oc
      10       1      10       8  # c,c1
      11       4       8      27  # c1,c1
      12       6       8       9  # c1,hc
      13       1      10      13  # c,c1
      14       3      10      11  # c,hc
      15       3      10      12  # c,hc
      16       4      13      15  # c1,c1
      17       1      29      13  # c,c1
      18       6      13      14  # c1,hc
      19       4      15      17  # c1,c1
      20       4      15      25  # c1,c1
      21       6      15      16  # c1,hc
      22       4      17      20  # c1,c1
      23       7      17      19  # c1,o3e
      24       6      17      18  # c1,hc
      25       7      20      19  # c1,o3e
      26       1      22      20  # c,c1
      27       6      20      21  # c1,hc
      28       1      22      25  # c,c1
      29       3      22      23  # c,hc
      30       3      22      24  # c,hc
      31       4      25      27  # c1,c1
      32       6      25      26  # c1,hc
      33       1      29      27  # c,c1
      34       6      27      28  # c1,hc
      35       3      29      30  # c,hc
      36       3      29      31  # c,hc
      37       4      32      34  # c1,c1
      38       1      48      32  # c,c1
      39       6      32      33  # c1,hc
      40       5      34      36  # c1,c3h
      41       4      34      44  # c1,c1
      42       6      34      35  # c1,hc
      43      10      36      39  # c3h,c3h
      44      12      36      38  # c3h,o3e
      45      11      36      37  # c3h,hc
      46      12      39      38  # c3h,o3e
      47       2      41      39  # c,c3h
      48      11      39      40  # c3h,hc
      49       1      41      44  # c,c1
      50       3      41      42  # c,hc
      51       3      41      43  # c,hc
      52       4      44      46  # c1,c1
      53       6      44      45  # c1,hc
      54       1      48      46  # c,c1
      55       6      46      47  # c1,hc
      56       3      48      49  # c,hc
      57       3      48      50  # c,hc
      58       1      53      51  # c,c1
      59       4      51      60  # c1,c1
      60       4      51      73  # c1,c1
      61       6      51      52  # c1,hc
      62       1      53      56  # c,c1
      63       3      53      54  # c,hc
      64       3      53      55  # c,hc
      65       4      56      63  # c1,c1
      66       4      56      58  # c1,c1
      67       6      56      57  # c1,hc
      68       4      58      60  # c1,c1
      69       7      58      62  # c1,o3e
      70       6      58      59  # c1,hc
      71       7      60      62  # c1,o3e
      72       6      60      61  # c1,hc
      73       4      63      65  # c1,c1
      74       4      63      73  # c1,c1
      75       6      63      64  # c1,hc
      76       4      65      68  # c1,c1
      77       7      65      67  # c1,o3e
      78       6      65      66  # c1,hc
      79       7      68      67  # c1,o3e
      80       1      70      68  # c,c1
      81       6      68      69  # c1,hc
      82       1      70      73  # c,c1
      83       3      70      71  # c,hc
      84       3      70      72  # c,hc
      85       6      73      74  # c1,hc

Angles

       1      17       5       3       1  # c1,c1,oh
       2      17      46       3       1  # c1,c1,oh
       3      32       4       3       1  # hc,c1,oh
       4      23       3       1       2  # c1,oh,h
       5      12       3       5      32  # c1,c1,c1
       6      16       3       5       7  # c1,c1,oc
       7      14       3       5       6  # c1,c1,hc
       8      12       3      46      44  # c1,c1,c1
       9       2      48      46       3  # c,c1,c1
      10      14       3      46      47  # c1,c1,hc
      11      14       5       3       4  # c1,c1,hc
      12      14      46       3       4  # c1,c1,hc
      13      12       5       3      46  # c1,c1,c1
      14      12       5      32      34  # c1,c1,c1
      15       2      48      32       5  # c,c1,c1
      16      14       5      32      33  # c1,c1,hc
      17      22       5       7       8  # c1,oc,c1
      18      14      32       5       6  # c1,c1,hc
      19      31       6       5       7  # hc,c1,oc
      20      16      32       5       7  # c1,c1,oc
      21       5      10       8       7  # c,c1,oc
      22      16      27       8       7  # c1,c1,oc
      23      31       9       8       7  # hc,c1,oc
      24       9       8      10      13  # c1,c,c1
      25      11       8      10      11  # c1,c,hc
      26      11       8      10      12  # c1,c,hc
      27      12       8      27      25  # c1,c1,c1
      28       2      29      27       8  # c,c1,c1
      29      14       8      27      28  # c1,c1,hc
      30       3      10       8       9  # c,c1,hc
      31      14      27       8       9  # c1,c1,hc
      32       2      10       8      27  # c,c1,c1
      33       2      10      13      15  # c,c1,c1
      34       1      10      13      29  # c,c1,c
      35       3      10      13      14  # c,c1,hc
      36      11      13      10      11  # c1,c,hc
      37      29      11      10      12  # hc,c,hc
      38      11      13      10      12  # c1,c,hc
      39      12      13      15      17  # c1,c1,c1
      40      12      13      15      25  # c1,c1,c1
      41      14      13      15      16  # c1,c1,hc
      42       9      13      29      27  # c1,c,c1
      43      11      13      29      30  # c1,c,hc
      44      11      13      29      31  # c1,c,hc
      45      14      15      13      14  # c1,c1,hc
      46       3      29      13      14  # c,c1,hc
      47       2      29      13      15  # c,c1,c1
      48      12      15      17      20  # c1,c1,c1
      49      15      15      17      19  # c1,c1,o3e
      50      14      15      17      18  # c1,c1,hc
      51       2      22      25      15  # c,c1,c1
      52      12      15      25      27  # c1,c1,c1
      53      14      15      25      26  # c1,c1,hc
      54      14      17      15      16  # c1,c1,hc
      55      14      25      15      16  # c1,c1,hc
      56      12      17      15      25  # c1,c1,c1
      57       2      22      20      17  # c,c1,c1
      58      15      17      20      19  # c1,c1,o3e
      59      14      17      20      21  # c1,c1,hc
      60      21      17      19      20  # c1,o3e,c1
      61      14      20      17      18  # c1,c1,hc
      62      30      18      17      19  # hc,c1,o3e
      63      15      20      17      19  # c1,c1,o3e
      64       4      22      20      19  # c,c1,o3e
      65      30      21      20      19  # hc,c1,o3e
      66       9      20      22      25  # c1,c,c1
      67      11      20      22      23  # c1,c,hc
      68      11      20      22      24  # c1,c,hc
      69       3      22      20      21  # c,c1,hc
      70       2      22      25      27  # c,c1,c1
      71       3      22      25      26  # c,c1,hc
      72      11      25      22      23  # c1,c,hc
      73      29      23      22      24  # hc,c,hc
      74      11      25      22      24  # c1,c,hc
      75       2      29      27      25  # c,c1,c1
      76      14      25      27      28  # c1,c1,hc
      77      14      27      25      26  # c1,c1,hc
      78      11      27      29      30  # c1,c,hc
      79      11      27      29      31  # c1,c,hc
      80       3      29      27      28  # c,c1,hc
      81      29      30      29      31  # hc,c,hc
      82      13      32      34      36  # c1,c1,c3h
      83      12      32      34      44  # c1,c1,c1
      84      14      32      34      35  # c1,c1,hc
      85       9      32      48      46  # c1,c,c1
      86      11      32      48      49  # c1,c,hc
      87      11      32      48      50  # c1,c,hc
      88      14      34      32      33  # c1,c1,hc
      89       3      48      32      33  # c,c1,hc
      90       2      48      32      34  # c,c1,c1
      91      18      34      36      39  # c1,c3h,c3h
      92      20      34      36      38  # c1,c3h,o3e
      93      19      34      36      37  # c1,c3h,hc
      94       2      41      44      34  # c,c1,c1
      95      12      34      44      46  # c1,c1,c1
      96      14      34      44      45  # c1,c1,hc
      97      25      36      34      35  # c3h,c1,hc
      98      14      44      34      35  # c1,c1,hc
      99      13      44      34      36  # c1,c1,c3h
     100       6      41      39      36  # c,c3h,c3h
     101      27      36      39      38  # c3h,c3h,o3e
     102      26      36      39      40  # c3h,c3h,hc
     103      28      36      38      39  # c3h,o3e,c3h
     104      26      39      36      37  # c3h,c3h,hc
     105      33      37      36      38  # hc,c3h,o3e
     106      27      39      36      38  # c3h,c3h,o3e
     107       8      41      39      38  # c,c3h,o3e
     108      33      40      39      38  # hc,c3h,o3e
     109      10      44      41      39  # c1,c,c3h
     110      24      39      41      42  # c3h,c,hc
     111      24      39      41      43  # c3h,c,hc
     112       7      41      39      40  # c,c3h,hc
     113       2      41      44      46  # c,c1,c1
     114       3      41      44      45  # c,c1,hc
     115      11      44      41      42  # c1,c,hc
     116      29      42      41      43  # hc,c,hc
     117      11      44      41      43  # c1,c,hc
     118       2      48      46      44  # c,c1,c1
     119      14      44      46      47  # c1,c1,hc
     120      14      46      44      45  # c1,c1,hc
     121      11      46      48      49  # c1,c,hc
     122      11      46      48      50  # c1,c,hc
     123       3      48      46      47  # c,c1,hc
     124      29      49      48      50  # hc,c,hc
     125       9      51      53      56  # c1,c,c1
     126      11      51      53      54  # c1,c,hc
     127      11      51      53      55  # c1,c,hc
     128      12      51      60      58  # c1,c1,c1
     129      15      51      60      62  # c1,c1,o3e
     130      14      51      60      61  # c1,c1,hc
     131       2      70      73      51  # c,c1,c1
     132      12      51      73      63  # c1,c1,c1
     133      14      51      73      74  # c1,c1,hc
     134       3      53      51      52  # c,c1,hc
     135      14      60      51      52  # c1,c1,hc
     136      14      73      51      52  # c1,c1,hc
     137       2      53      51      60  # c,c1,c1
     138       2      53      51      73  # c,c1,c1
     139       2      53      56      63  # c,c1,c1
     140       2      53      56      58  # c,c1,c1
     141       3      53      56      57  # c,c1,hc
     142      11      56      53      54  # c1,c,hc
     143      29      54      53      55  # hc,c,hc
     144      11      56      53      55  # c1,c,hc
     145      12      56      63      65  # c1,c1,c1
     146      12      56      63      73  # c1,c1,c1
     147      14      56      63      64  # c1,c1,hc
     148      12      56      58      60  # c1,c1,c1
     149      15      56      58      62  # c1,c1,o3e
     150      14      56      58      59  # c1,c1,hc
     151      14      63      56      57  # c1,c1,hc
     152      14      58      56      57  # c1,c1,hc
     153      12      58      56      63  # c1,c1,c1
     154      15      58      60      62  # c1,c1,o3e
     155      14      58      60      61  # c1,c1,hc
     156      21      58      62      60  # c1,o3e,c1
     157      14      60      58      59  # c1,c1,hc
     158      30      59      58      62  # hc,c1,o3e
     159      15      60      58      62  # c1,c1,o3e
     160      12      60      51      73  # c1,c1,c1
     161      30      61      60      62  # hc,c1,o3e
     162      12      63      65      68  # c1,c1,c1
     163      15      63      65      67  # c1,c1,o3e
     164      14      63      65      66  # c1,c1,hc
     165       2      70      73      63  # c,c1,c1
     166      14      63      73      74  # c1,c1,hc
     167      14      65      63      64  # c1,c1,hc
     168      14      73      63      64  # c1,c1,hc
     169      12      65      63      73  # c1,c1,c1
     170       2      70      68      65  # c,c1,c1
     171      15      65      68      67  # c1,c1,o3e
     172      14      65      68      69  # c1,c1,hc
     173      21      65      67      68  # c1,o3e,c1
     174      14      68      65      66  # c1,c1,hc
     175      30      66      65      67  # hc,c1,o3e
     176      15      68      65      67  # c1,c1,o3e
     177       4      70      68      67  # c,c1,o3e
     178      30      69      68      67  # hc,c1,o3e
     179       9      68      70      73  # c1,c,c1
     180      11      68      70      71  # c1,c,hc
     181      11      68      70      72  # c1,c,hc
     182       3      70      68      69  # c,c1,hc
     183       3      70      73      74  # c,c1,hc
     184      11      73      70      71  # c1,c,hc
     185      29      71      70      72  # hc,c,hc
     186      11      73      70      72  # c1,c,hc

Dihedrals

       1      30      32       5       3       1  # c1,c1,c1,oh
       2      61       7       5       3       1  # oc,c1,c1,oh
       3      56       6       5       3       1  # hc,c1,c1,oh
       4      30      44      46       3       1  # c1,c1,c1,oh
       5       9      48      46       3       1  # c,c1,c1,oh
       6      56      47      46       3       1  # hc,c1,c1,oh
       7      36       5       3       1       2  # c1,c1,oh,h
       8      36      46       3       1       2  # c1,c1,oh,h
       9      47       2       1       3       4  # h,oh,c1,hc
      10      25       3       5      32      34  # c1,c1,c1,c1
      11       4      48      32       5       3  # c,c1,c1,c1
      12      27       3       5      32      33  # c1,c1,c1,hc
      13      35       3       5       7       8  # c1,c1,oc,c1
      14       4      41      44      46       3  # c,c1,c1,c1
      15      25       3      46      44      34  # c1,c1,c1,c1
      16      27       3      46      44      45  # c1,c1,c1,hc
      17      16      32      48      46       3  # c1,c,c1,c1
      18      24       3      46      48      49  # c1,c1,c,hc
      19      24       3      46      48      50  # c1,c1,c,hc
      20      27      32       5       3       4  # c1,c1,c1,hc
      21      55       4       3       5       7  # hc,c1,c1,oc
      22      53       4       3       5       6  # hc,c1,c1,hc
      23      27      44      46       3       4  # c1,c1,c1,hc
      24       6      48      46       3       4  # c,c1,c1,hc
      25      53       4       3      46      47  # hc,c1,c1,hc
      26      25       5       3      46      44  # c1,c1,c1,c1
      27       4      48      46       3       5  # c,c1,c1,c1
      28      27       5       3      46      47  # c1,c1,c1,hc
      29      26       5      32      34      36  # c1,c1,c1,c3h
      30      25       5      32      34      44  # c1,c1,c1,c1
      31      27       5      32      34      35  # c1,c1,c1,hc
      32      16      46      48      32       5  # c1,c,c1,c1
      33      24       5      32      48      49  # c1,c1,c,hc
      34      24       5      32      48      50  # c1,c1,c,hc
      35      11      10       8       7       5  # c,c1,oc,c1
      36      35      27       8       7       5  # c1,c1,oc,c1
      37      41       5       7       8       9  # c1,oc,c1,hc
      38      27      46       3       5       6  # c1,c1,c1,hc
      39      27      34      32       5       6  # c1,c1,c1,hc
      40       6      48      32       5       6  # c,c1,c1,hc
      41      53       6       5      32      33  # hc,c1,c1,hc
      42      41       8       7       5       6  # c1,oc,c1,hc
      43      29      46       3       5       7  # c1,c1,c1,oc
      44      29      34      32       5       7  # c1,c1,c1,oc
      45       8      48      32       5       7  # c,c1,c1,oc
      46      55      33      32       5       7  # hc,c1,c1,oc
      47      19      13      10       8       7  # c1,c,c1,oc
      48      50      11      10       8       7  # hc,c,c1,oc
      49      50      12      10       8       7  # hc,c,c1,oc
      50      29      25      27       8       7  # c1,c1,c1,oc
      51       8      29      27       8       7  # c,c1,c1,oc
      52      55      28      27       8       7  # hc,c1,c1,oc
      53      35      32       5       7       8  # c1,c1,oc,c1
      54      16       8      10      13      15  # c1,c,c1,c1
      55       1      29      13      10       8  # c,c1,c,c1
      56      17       8      10      13      14  # c1,c,c1,hc
      57       4      22      25      27       8  # c,c1,c1,c1
      58      25       8      27      25      15  # c1,c1,c1,c1
      59      27       8      27      25      26  # c1,c1,c1,hc
      60      16      13      29      27       8  # c1,c,c1,c1
      61      24       8      27      29      30  # c1,c1,c,hc
      62      24       8      27      29      31  # c1,c1,c,hc
      63      17      13      10       8       9  # c1,c,c1,hc
      64      48      11      10       8       9  # hc,c,c1,hc
      65      48      12      10       8       9  # hc,c,c1,hc
      66      27      25      27       8       9  # c1,c1,c1,hc
      67       6      29      27       8       9  # c,c1,c1,hc
      68      53       9       8      27      28  # hc,c1,c1,hc
      69       4      10       8      27      25  # c,c1,c1,c1
      70       3      10       8      27      29  # c,c1,c1,c
      71       6      10       8      27      28  # c,c1,c1,hc
      72       4      10      13      15      17  # c,c1,c1,c1
      73       4      10      13      15      25  # c,c1,c1,c1
      74       6      10      13      15      16  # c,c1,c1,hc
      75       1      10      13      29      27  # c,c1,c,c1
      76       2      10      13      29      30  # c,c1,c,hc
      77       2      10      13      29      31  # c,c1,c,hc
      78      24      27       8      10      11  # c1,c1,c,hc
      79      24      15      13      10      11  # c1,c1,c,hc
      80       2      29      13      10      11  # c,c1,c,hc
      81      48      11      10      13      14  # hc,c,c1,hc
      82      24      27       8      10      12  # c1,c1,c,hc
      83      24      15      13      10      12  # c1,c1,c,hc
      84       2      29      13      10      12  # c,c1,c,hc
      85      48      12      10      13      14  # hc,c,c1,hc
      86      16      13      10       8      27  # c1,c,c1,c1
      87      25      13      15      17      20  # c1,c1,c1,c1
      88      28      13      15      17      19  # c1,c1,c1,o3e
      89      27      13      15      17      18  # c1,c1,c1,hc
      90       4      22      25      15      13  # c,c1,c1,c1
      91      25      13      15      25      27  # c1,c1,c1,c1
      92      27      13      15      25      26  # c1,c1,c1,hc
      93      16      13      29      27      25  # c1,c,c1,c1
      94      17      13      29      27      28  # c1,c,c1,hc
      95      27      17      15      13      14  # c1,c1,c1,hc
      96      27      25      15      13      14  # c1,c1,c1,hc
      97      53      14      13      15      16  # hc,c1,c1,hc
      98      17      27      29      13      14  # c1,c,c1,hc
      99      48      30      29      13      14  # hc,c,c1,hc
     100      48      31      29      13      14  # hc,c,c1,hc
     101      16      27      29      13      15  # c1,c,c1,c1
     102      24      15      13      29      30  # c1,c1,c,hc
     103      24      15      13      29      31  # c1,c1,c,hc
     104       4      22      20      17      15  # c,c1,c1,c1
     105      28      15      17      20      19  # c1,c1,c1,o3e
     106      27      15      17      20      21  # c1,c1,c1,hc
     107      34      15      17      19      20  # c1,c1,o3e,c1
     108      16      20      22      25      15  # c1,c,c1,c1
     109      24      15      25      22      23  # c1,c1,c,hc
     110      24      15      25      22      24  # c1,c1,c,hc
     111       4      29      27      25      15  # c,c1,c1,c1
     112      27      15      25      27      28  # c1,c1,c1,hc
     113       6      29      13      15      16  # c,c1,c1,hc
     114      27      20      17      15      16  # c1,c1,c1,hc
     115      54      16      15      17      19  # hc,c1,c1,o3e
     116      53      16      15      17      18  # hc,c1,c1,hc
     117       6      22      25      15      16  # c,c1,c1,hc
     118      27      27      25      15      16  # c1,c1,c1,hc
     119      53      16      15      25      26  # hc,c1,c1,hc
     120       4      29      13      15      17  # c,c1,c1,c1
     121       4      22      25      15      17  # c,c1,c1,c1
     122      25      17      15      25      27  # c1,c1,c1,c1
     123      27      17      15      25      26  # c1,c1,c1,hc
     124      16      25      22      20      17  # c1,c,c1,c1
     125      24      17      20      22      23  # c1,c1,c,hc
     126      24      17      20      22      24  # c1,c1,c,hc
     127      10      22      20      19      17  # c,c1,o3e,c1
     128      40      17      19      20      21  # c1,o3e,c1,hc
     129      27      25      15      17      18  # c1,c1,c1,hc
     130       6      22      20      17      18  # c,c1,c1,hc
     131      54      18      17      20      19  # hc,c1,c1,o3e
     132      53      18      17      20      21  # hc,c1,c1,hc
     133      40      20      19      17      18  # c1,o3e,c1,hc
     134      28      25      15      17      19  # c1,c1,c1,o3e
     135       7      22      20      17      19  # c,c1,c1,o3e
     136      54      21      20      17      19  # hc,c1,c1,o3e
     137      18      25      22      20      19  # c1,c,c1,o3e
     138      49      23      22      20      19  # hc,c,c1,o3e
     139      49      24      22      20      19  # hc,c,c1,o3e
     140      25      20      17      15      25  # c1,c1,c1,c1
     141      16      20      22      25      27  # c1,c,c1,c1
     142      17      20      22      25      26  # c1,c,c1,hc
     143      17      25      22      20      21  # c1,c,c1,hc
     144      48      23      22      20      21  # hc,c,c1,hc
     145      48      24      22      20      21  # hc,c,c1,hc
     146       3      22      25      27      29  # c,c1,c1,c
     147       6      22      25      27      28  # c,c1,c1,hc
     148      24      27      25      22      23  # c1,c1,c,hc
     149      48      23      22      25      26  # hc,c,c1,hc
     150      24      27      25      22      24  # c1,c1,c,hc
     151      48      24      22      25      26  # hc,c,c1,hc
     152      24      25      27      29      30  # c1,c1,c,hc
     153      24      25      27      29      31  # c1,c1,c,hc
     154       4      29      13      15      25  # c,c1,c1,c1
     155       6      29      27      25      26  # c,c1,c1,hc
     156      53      26      25      27      28  # hc,c1,c1,hc
     157      48      30      29      27      28  # hc,c,c1,hc