LAMMPS (22 Dec 2022)
Reading data file ...
  orthogonal box = (5.9371802 5.9371802 5.9371802) to (44.481782 44.481782 44.481782)
  2 by 3 by 4 MPI processor grid
  reading atoms ...
  5008 atoms
  reading velocities ...
  5008 velocities
  scanning bonds ...
  4 = max bonds/atom
  scanning angles ...
  6 = max angles/atom
  scanning dihedrals ...
  30 = max dihedrals/atom
  scanning impropers ...
  4 = max impropers/atom
  reading bonds ...
  5309 bonds
  reading angles ...
  9588 angles
  reading dihedrals ...
  13632 dihedrals
  reading impropers ...
  4896 impropers
Finding 1-2 1-3 1-4 neighbors ...
  special bond factors lj:    0        0        1       
  special bond factors coul:  0        0        1       
     4 = max # of 1-2 neighbors
    10 = max # of 1-3 neighbors
    14 = max # of special neighbors
  special bonds CPU = 0.006 seconds
  read_data CPU = 0.376 seconds
PPPM initialization ...
  using 12-bit tables for long-range coulomb (../kspace.cpp:342)
  G vector (1/distance) = 0.1152565
  grid = 4 4 4
  stencil order = 5
  estimated absolute RMS force accuracy = 0.27637126
  estimated relative force accuracy = 0.00083228385
  using double precision KISS FFT
  3d grid and FFT values/proc = 294 4
Generated 36 of 36 mixed pair_coeff terms from sixthpower/sixthpower mixing rule
Neighbor list info ...
  update: every = 1 steps, delay = 0 steps, check = yes
  max neighbors/atom: 2000, page size: 100000
  master list distance cutoff = 12
  ghost atom cutoff = 12
  binsize = 6, bins = 7 7 7
  1 neighbor lists, perpetual/occasional/extra = 1 0 0
  (1) pair lj/class2/coul/long, perpetual
      attributes: half, newton on
      pair build: half/bin/newton
      stencil: half/bin/3d
      bin: standard
Setting up cg style minimization ...
  Unit style    : real
  Current step  : 0
WARNING: Inconsistent image flags (../domain.cpp:815)
  PPPM/cg optimization cutoff: 1e-05
  Total charged atoms: 93.9%
  Min/max charged atoms/proc: 91.1% 96.9%
Per MPI rank memory allocation (min/avg/max) = 21.36 | 21.36 | 21.36 Mbytes
   Step          Temp          E_pair         E_mol          TotEng         Press     
         0   603.58846     -41.486735      15484.741      24451.761      207.6569     
       105   603.58846     -849.95296      7322.6955      15481.25       3662.0607    
Loop time of 1.05824 on 24 procs for 105 steps with 5008 atoms

99.2% CPU use with 24 MPI tasks x no OpenMP threads

Minimization stats:
  Stopping criterion = linesearch alpha is zero
  Energy initial, next-to-last, final = 
      15443.2539854337   6472.74253430637   6472.74253430637
  Force two-norm initial, final = 3571.4837 48.660978
  Force max component initial, final = 165.94607 2.5232822
  Final line search alpha, max atom move = 2.6467167e-12 6.6784133e-12
  Iterations, force evaluations = 105 271

MPI task timing breakdown:
Section |  min time  |  avg time  |  max time  |%varavg| %total
---------------------------------------------------------------
Pair    | 0.53628    | 0.66415    | 0.76725    |   7.2 | 62.76
Bond    | 0.14367    | 0.1671     | 0.19042    |   2.9 | 15.79
Kspace  | 0.060963   | 0.18001    | 0.31928    |  15.8 | 17.01
Neigh   | 0.0053064  | 0.005326   | 0.0053429  |   0.0 |  0.50
Comm    | 0.033807   | 0.034868   | 0.036279   |   0.4 |  3.29
Output  | 0          | 0          | 0          |   0.0 |  0.00
Modify  | 0          | 0          | 0          |   0.0 |  0.00
Other   |            | 0.006783   |            |       |  0.64

Nlocal:        208.667 ave         233 max         189 min
Histogram: 1 3 5 1 4 2 4 2 1 1
Nghost:        4454.62 ave        4492 max        4406 min
Histogram: 2 0 0 2 5 2 7 3 1 2
Neighs:        66010.1 ave       76457 max       52347 min
Histogram: 1 1 1 3 2 5 2 4 4 1

Total # of neighbors = 1584243
Ave neighs/atom = 316.34245
Ave special neighs/atom = 5.8594249
Neighbor list builds = 2
Dangerous builds = 0
PPPM initialization ...
  using 12-bit tables for long-range coulomb (../kspace.cpp:342)
  G vector (1/distance) = 0.1152565
  grid = 4 4 4
  stencil order = 5
  estimated absolute RMS force accuracy = 0.27637126
  estimated relative force accuracy = 0.00083228385
  using double precision KISS FFT
  3d grid and FFT values/proc = 294 4
Generated 36 of 36 mixed pair_coeff terms from sixthpower/sixthpower mixing rule
Setting up Verlet run ...
  Unit style    : real
  Current step  : 105
  Time step     : 0.25
WARNING: Inconsistent image flags (../domain.cpp:815)
Per MPI rank memory allocation (min/avg/max) = 20.23 | 20.23 | 20.24 Mbytes
   Step          Temp          PotEng         E_vdwl         E_coul         E_bond        E_angle        E_dihed        E_impro        Density         Volume    
       105   603.58846      6472.7425     -518.5187       950.59411      923.30705      10181.934     -3743.9058     -38.639458      1.0071717      57265.189    
     20000   603.93197      15489.043      326.84438      1007.9593      4288.5183      13484.423     -2484.7194      146.73421      0.99060436     58222.92     
     40000   610.5448       15445.321      245.75068      1025.6157      4312.7743      13473.61      -2476.4281      146.08373      0.98419114     58602.314    
     60000   591.73546      15377.177      206.91653      999.32782      4284.6993      13362.095     -2343.7455      150.69363      1.0022162      57548.34     
     80000   605.81604      15254.037      185.00691      986.2462       4241.9309      13414.181     -2440.6049      148.13271      1.0028121      57514.14     
    100000   601.33161      15311.036      242.10189      982.06193      4274.5354      13400.03      -2452.1006      146.51816      1.0025953      57526.577    
    120000   607.30564      15285.296      228.9505       980.74552      4213.9274      13408.381     -2428.8043      164.15681      1.0096598      57124.07     
    140000   600.39204      15394.594      212.35689      987.76872      4284.8629      13476.539     -2442.3645      156.57868      0.99218331     58130.264    
    160000   604.34224      15488.279      266.44153      1019.5202      4357.1421      13339.426     -2376.8575      164.76468      0.99612052     57900.502    
    180000   600.34971      15346.183      200.24409      997.21146      4135.9495      13396.745     -2265.0635      162.94112      0.99990723     57681.229    
    200000   601.68751      15407.072      358.14171      1001.5228      4243.8671      13385.767     -2437.4967      136.7659       0.99103595     58197.564    
    220000   598.24454      15318.306      354.42584      987.90255      4262.6975      13440.756     -2579.6603      133.72213      0.97938049     58890.165    
    240000   591.02202      15433.019      234.32728      1001.8016      4283.6659      13454.854     -2410.0209      151.1521       0.99459397     57989.371    
    260000   596.30185      15437.169      247.15726      972.67982      4312.5231      13384.011     -2340.5998      143.83928      0.99845258     57765.265    
    280000   601.08087      15445.73       294.62069      992.01467      4326.4291      13450.001     -2486.5225      151.04801      0.99084828     58208.587    
    300000   594.77028      15215.491      184.38463      985.88565      4325.1637      13288.023     -2425.2618      138.91866      0.99769611     57809.064    
    320000   606.77219      15290.924      203.23444      983.82181      4245.3952      13220.566     -2226.5841      145.35575      1.0110151      57047.494    
    340000   612.19505      15307.88       309.63479      969.61028      4305.6204      13285.504     -2431.783       150.58614      0.99343484     58057.032    
    360000   602.11544      15600.039      332.4752       994.28433      4360.1043      13320.704     -2285.985       159.80836      0.97817452     58962.769    
    380000   611.0734       15291.515      193.8076       1017.5144      4109.3642      13332.324     -2233.6526      154.39563      0.99693238     57853.35     
    400000   604.09367      15521.934      251.8112       988.31254      4348.1828      13408.614     -2361.0151      167.74561      1.0016819      57579.037    
    420000   611.8463       15591.17       292.98594      981.6884       4324.6398      13469.998     -2362.3383      165.46508      0.97325461     59260.833    
    440000   598.4035       15476.176      272.14704      982.76467      4302.8838      13445.728     -2397.3725      151.45508      0.98163724     58754.778    
    460000   606.80067      15475.964      235.50968      972.72844      4285.5279      13475.701     -2362.2304      150.11764      0.99071539     58216.394    
    480000   607.6445       15518.302      270.50966      998.33782      4465.0211      13455.086     -2531.4087      142.75981      0.9844962      58584.155    
    500000   589.61239      15507.355      304.67576      976.38472      4286.0934      13418.53      -2356.104       159.96982      0.99799148     57791.955    
    520000   602.29195      15458.629      287.01921      981.98363      4359.1638      13337.897     -2385.299       159.90848      0.97923336     58899.013    
    540000   602.60635      15529.869      309.36279      995.91163      4328.9346      13385.734     -2338.6297      130.87578      0.97227175     59320.738    
    560000   595.85694      15433.042      188.74409      1040.3299      4299.1585      13416.304     -2386.6911      154.78616      1.0018001      57572.244    
    580000   593.88999      15440.963      219.48785      980.89488      4238.0601      13519.871     -2392.2129      157.50599      0.98501009     58553.591    
    600000   615.91868      15402.422      245.6793       982.92745      4087.2672      13549.434     -2313.828       131.54793      0.98685798     58443.95     
    620000   598.56927      15380.668      244.97318      978.33946      4322.696       13300.95      -2341.6791      156.5823       0.98667451     58454.817    
    640000   598.12068      15343.558      240.00848      979.5873       4261.8151      13522.659     -2512.9888      134.09178      0.99231182     58122.736    
    660000   619.27578      15461.4        214.25675      995.60809      4309.4943      13496.116     -2439.8939      167.9627       0.99289257     58088.74     
    680000   592.97107      15499.861      325.47508      960.17839      4384.0296      13321.607     -2352.3149      142.8963       0.98422675     58600.194    
    700000   596.08498      15446.482      328.91422      1008.4838      4284.0662      13463.017     -2512.6673      157.0065       0.99023261     58244.778    
    720000   605.34835      15471.438      326.7346       998.50067      4309.0331      13484.895     -2525.961       160.41701      0.99119977     58187.946    
    740000   585.26283      15433.304      313.09039      966.10158      4234.6089      13412.662     -2363.1859      150.30589      0.98262714     58695.588    
    760000   602.00308      15399.712      196.90486      998.00818      4342.7905      13484.547     -2495.5041      154.89766      1.008961       57163.633    
    780000   594.78867      15258.778      160.88433      984.10652      4288.4742      13303.944     -2350.893       152.81267      1.0124327      56967.619    
    800000   590.84161      15291.182      255.35471      983.12302      4143.2395      13422.235     -2387.5567      153.77964      0.99516202     57956.269    
    820000   583.56649      15349.979      218.38633      1004.1002      4200.8919      13372.808     -2303.4627      139.438        1.0023804      57538.912    
    840000   593.65357      15226.394      112.22374      992.2618       4246.1098      13323.486     -2329.9168      164.58856      1.0137436      56893.951    
    860000   607.40809      15387.541      158.5111       988.17736      4254.3011      13520.24      -2414.5239      162.23729      0.99849699     57762.696    
    880000   594.50434      15416.33       290.1601       992.92132      4165.3769      13375.116     -2297.3188      172.0514       1.0023654      57539.773    
    900000   594.29596      15276.546      289.69522      984.57658      4288.9449      13350.954     -2482.7649      125.20811      0.99676713     57862.941    
    920000   611.30724      15369.09       274.42767      987.74677      4372.8857      13327.66      -2447.6807      136.05858      0.9958277      57917.528    
    940000   614.05645      15446.071      276.94898      990.0119       4279.6072      13399.798     -2368.8068      149.97405      0.9958414      57916.73     
    960000   598.47792      15401.906      168.58916      1003.2495      4385.7437      13403.098     -2424.5612      146.30275      1.0127554      56949.463    
    980000   598.23282      15392.704      238.47666      983.29971      4280.7891      13478.411     -2459.6232      152.70471      0.99885043     57742.257    
   1000000   600.63875      15445.595      265.34721      1007.9449      4396.0008      13567.802     -2663.8145      154.10856      0.99344193     58056.618    
   1020000   614.92775      15382.2        139.70317      990.81064      4237.8569      13494.164     -2348.7242      148.61099      1.0071438      57266.774    
   1040000   591.89419      15170.528      186.20037      974.78529      4247.5926      13374.754     -2472.989       142.65479      1.0136433      56899.58     
   1060000   599.78682      15213.821      254.90394      972.43586      4206.2009      13235.379     -2324.1097      150.20607      0.99968282     57694.177    
   1080000   596.51136      15258.303      193.10466      976.64212      4189.9869      13354.614     -2314.8076      140.13024      1.0051397      57380.956    
   1100000   597.7938       15272.758      213.35761      1006.1319      4206.6689      13392.037     -2417.1063      153.14894      1.0007158      57634.621    
   1120000   598.99336      15497.91       223.5034       999.92353      4217.8558      13470.79      -2305.2118      173.05677      0.99200675     58140.611    
   1140000   608.92208      15325.966      249.67051      1004.0242      4306.5019      13408.219     -2500.4436      140.47513      0.99266323     58102.161    
   1160000   598.81394      15617.857      202.04027      985.25385      4364.7826      13497.758     -2323.4772      172.34321      0.99820227     57779.751    
   1180000   603.87485      15224.161      203.85681      976.94132      4179.1465      13400.773     -2405.5074      150.93365      0.99019397     58247.051    
   1200000   601.40961      15436.458      268.49897      1010.9431      4288.5449      13360.072     -2375.6441      165.78837      1.0036604      57465.532    
   1200105   604.28226      15422.832      212.07229      1008.8819      4270.5964      13547.463     -2475.5702      141.2238       0.99697854     57850.672    
Loop time of 3736.22 on 24 procs for 1200000 steps with 5008 atoms

Performance: 6.937 ns/day, 3.459 hours/ns, 321.180 timesteps/s, 1.608 Matom-step/s
99.5% CPU use with 24 MPI tasks x no OpenMP threads

MPI task timing breakdown:
Section |  min time  |  avg time  |  max time  |%varavg| %total
---------------------------------------------------------------
Pair    | 1613.1     | 1960.4     | 2221.3     | 334.0 | 52.47
Bond    | 607.4      | 668        | 718.08     | 130.6 | 17.88
Kspace  | 575.18     | 881.65     | 1290.5     | 579.2 | 23.60
Neigh   | 54.494     | 54.544     | 54.584     |   0.4 |  1.46
Comm    | 123.52     | 125.16     | 127.63     |  11.5 |  3.35
Output  | 0.0028154  | 0.00348    | 0.015831   |   4.4 |  0.00
Modify  | 32.291     | 34.151     | 35.672     |  17.4 |  0.91
Other   |            | 12.3       |            |       |  0.33

Nlocal:        208.667 ave         238 max         182 min
Histogram: 1 3 3 3 1 5 2 3 1 2
Nghost:        4447.79 ave        4492 max        4397 min
Histogram: 3 2 0 3 3 4 1 1 2 5
Neighs:          65462 ave       78785 max       52132 min
Histogram: 1 1 3 6 4 1 1 3 2 2

Total # of neighbors = 1571087
Ave neighs/atom = 313.71546
Ave special neighs/atom = 5.8594249
Neighbor list builds = 18741
Dangerous builds = 0
PPPM initialization ...
  using 12-bit tables for long-range coulomb (../kspace.cpp:342)
  G vector (1/distance) = 0.11497188
  grid = 4 4 4
  stencil order = 5
  estimated absolute RMS force accuracy = 0.27677686
  estimated relative force accuracy = 0.0008335053
  using double precision KISS FFT
  3d grid and FFT values/proc = 294 4
Generated 36 of 36 mixed pair_coeff terms from sixthpower/sixthpower mixing rule
Setting up Verlet run ...
  Unit style    : real
  Current step  : 1200105
  Time step     : 0.25
WARNING: Inconsistent image flags (../domain.cpp:815)
Per MPI rank memory allocation (min/avg/max) = 20.23 | 20.23 | 20.24 Mbytes
   Step          Temp          PotEng         E_vdwl         E_coul         E_bond        E_angle        E_dihed        E_impro        Density         Volume    
   1200105   604.28226      15422.804      212.07229      1005.6951      4270.5964      13547.463     -2475.5702      141.2238       0.99697854     57850.672    
   1220000   585.72939      15223.044      262.14022      981.28041      4209.7136      13389.082     -2486.1324      146.77366      0.99980652     57687.039    
   1240000   568.49046      15149.556      288.62705      960.33408      4165.147       13375.814     -2509.4051      147.62973      0.99832124     57772.865    
   1260000   577.92124      15093.028      155.91314      987.91082      4139.4258      13340.544     -2405.1919      153.15185      0.98687962     58442.668    
   1280000   577.75771      14991.47       257.40795      1012.7369      4127.3985      13194.082     -2465.2559      143.38323      0.99222698     58127.706    
   1300000   583.43536      15175.869      226.57221      959.38772      4163.6346      13366.99      -2411.2863      150.39044      0.9953376      57946.046    
   1320000   572.81904      15165.209      253.41022      985.49327      4104.9716      13231.868     -2273.4675      142.41015      0.98870865     58334.554    
   1340000   579.82629      14977.637      146.18057      971.09178      4057.8251      13310.387     -2362.4875      133.2697       1.0029594      57505.698    
   1360000   593.82638      15204.07       195.09201      988.14698      4208.883       13298.324     -2360.4769      152.67269      0.99363287     58045.461    
   1380000   576.69827      15037.958      152.30337      990.81717      4154.8371      13337.61      -2465.7404      146.17746      1.0090444      57158.91     
   1400000   578.28424      15069.17       218.06832      954.6471       4157.1945      13420.051     -2551.6997      149.01708      1.0074095      57251.671    
   1420000   587.07289      15101.421      196.67228      989.19464      4053.0952      13421.128     -2421.564       142.80735      0.99752828     57818.79     
   1440000   581.06065      15079.81       74.844618      985.82421      4220.7137      13339.473     -2411.1337      149.00859      1.0180843      56651.379    
   1460000   574.54086      15143.167      211.27568      961.22829      4127.8475      13413.1       -2442.1246      150.5129       1.0033093      57485.639    
   1480000   580.68219      15039.005      211.71952      980.76727      4190.9374      13339.676     -2538.5239      132.85505      1.0050064      57388.569    
   1500000   572.92547      15186.759      216.95175      979.50927      4281.0381      13276.271     -2428.6642      140.66129      0.99111568     58192.883    
   1520000   582.47492      15106.473      213.19548      955.70799      4245.1814      13257.82      -2404.9653      118.97102      1.011778       57004.478    
   1540000   577.48374      15164.301      231.44455      976.03598      4238.7003      13179.959     -2337.3161      154.62788      1.0086951      57178.705    
   1560000   584.53107      15221.966      202.39017      1003.0652      4259.1076      13276.427     -2372.2073      131.7469       1.006174       57321.973    
   1580000   571.08188      15182.564      231.05767      979.21676      4135.3249      13398.434     -2422.7108      140.70243      1.0071992      57263.627    
   1600000   582.83271      15052.329      140.23831      996.32834      4183.9499      13245.997     -2393.7174      157.22679      1.0142385      56866.187    
   1620000   583.11342      15100.369      164.38319      1010.1781      4133.6379      13485.025     -2545.076       131.66645      1.0097552      57118.676    
   1640000   592.63869      15081.426      140.98916      980.96253      4157.4789      13354.955     -2425.2104      151.12695      1.0093027      57144.284    
   1660000   566.81402      14882.685      75.778724      975.02079      4077.1555      13340.258     -2451.5488      145.42348      1.0077974      57229.636    
   1680000   578.32941      14889.428      202.11852      933.33802      4123.528       13321.756     -2547.4859      134.3572       1.0115881      57015.178    
   1700000   589.21489      14924.23       193.58881      945.93776      4094.8619      13259.473     -2434.9622      145.01616      1.0215374      56459.877    
   1720000   587.03384      15028.559      165.35176      974.37233      4153.5524      13200.688     -2353.2577      166.26656      1.0045618      57413.966    
   1740000   581.36125      15028.679      138.14501      973.19998      4213.6916      13293.384     -2464.8708      153.41402      1.0216853      56451.705    
   1760000   584.83378      15054.542      168.46833      977.26924      4274.3996      13310.245     -2536.9601      140.09277      1.0188494      56608.836    
   1780000   575.41346      14903.492      51.517812      988.56695      4083.5649      13229.036     -2304.023       133.67212      1.0291017      56044.877    
   1800000   576.66593      14891.303      120.27499      986.00891      4128.1929      13206.571     -2392.7189      121.94334      1.0080299      57216.438    
   1820000   584.90154      15061.252      101.42911      973.99567      4134.6802      13337.134     -2345.781       139.42476      1.0246063      56290.769    
   1840000   582.30258      14945.378      203.13163      972.13384      4105.9126      13248.363     -2440.456       135.81631      1.0165283      56738.093    
   1860000   581.68701      15083.08       253.17616      964.65491      4153.6429      13377.228     -2540.442       154.04087      1.0192557      56586.272    
   1880000   569.47709      15179.479      106.11309      987.77112      4193.8185      13528.657     -2512.6075      153.30122      1.0326155      55854.166    
   1900000   566.68449      15057.849      211.1915       965.3018       4151.0874      13411.467     -2536.2924      134.05966      1.0191389      56592.753    
   1920000   587.319        15115.278      207.63511      971.76382      4146.1201      13315.625     -2375.1984      128.8145       1.0005635      57643.396    
   1940000   571.27676      15074.811      208.94811      996.70882      4134.6452      13284.219     -2409.1562      138.36677      1.0030578      57500.056    
   1960000   567.21889      15156.203      157.41619      969.0963       4121.2726      13402.472     -2364.69        149.69183      1.00403        57444.379    
   1980000   582.83977      14930.704      111.16013      964.88855      4129.813       13337.528     -2480.231       146.17991      1.0049389      57392.422    
   2000000   583.21849      15051.43       87.407917      954.56635      4072.8247      13521.043     -2458.9758      153.1469       1.007259       57260.225    
   2020000   588.62738      14883.264      140.61052      953.57453      4049.522       13279.623     -2399.8429      138.42662      1.0220205      56433.188    
   2040000   588.89283      15033.18       49.468183      934.03127      4220.5662      13318.506     -2354.5499      144.58783      1.0250344      56267.262    
   2060000   571.71663      15254.779      161.5607       961.10682      4194.0389      13472.709     -2391.8994      135.8644       1.0202249      56532.514    
   2080000   584.88273      14969.287      62.495604      957.06785      4187.4841      13368.797     -2473.3074      146.65347      1.0228471      56387.585    
   2100000   580.67159      15050.464      225.70802      992.42174      4112.827       13303.031     -2457.1738      152.84738      1.0081435      57209.986    
   2120000   582.88436      15091.239      214.77356      958.15769      4272.9988      13182.428     -2398.5059      139.83996      1.0151834      56813.258    
   2140000   583.9508       15102.04       219.81386      984.5021       4182.893       13318.598     -2460.6911      135.55236      1.0040493      57443.272    
   2160000   579.91509      15146.162      196.841        970.63356      4126.0069      13433.955     -2456.9041      155.4971       0.98150531     58762.675    
   2180000   584.01307      15221.544      258.64154      1008.3233      4193.8224      13299.11      -2394.9318      136.09751      1.0017046      57577.731    
   2200000   583.79123      14941.943      103.66582      989.66075      3990.9883      13382.341     -2399.7817      153.27646      1.021477       56463.218    
   2220000   580.88677      14912.119      177.66905      957.69154      4052.6069      13295.551     -2451.1387      157.6966       1.0019104      57565.902    
   2240000   568.61885      15233.695      289.40489      998.85639      4168.8353      13231.961     -2337.7         160.71358      0.9940799      58019.359    
   2260000   581.05677      15031.693      167.23752      979.93546      4128.5554      13352.291     -2462.5689      146.12426      1.0063767      57310.428    
   2280000   573.31582      15034.532      215.49124      989.89385      4014.286       13308.814     -2354.8259      137.86252      0.98945307     58290.666    
   2300000   576.40089      15085.034      144.81598      986.0664       4179.8173      13420.636     -2506.4293      138.31148      1.0058652      57339.571    
   2320000   572.89817      14897.176      108.95461      990.25266      4056.2301      13285.219     -2407.224       142.2089       1.0091201      57154.622    
   2340000   586.78682      14959.679      131.21584      940.80755      4131.8435      13333.133     -2443.0699      144.98346      1.0123963      56969.667    
   2360000   581.80542      15074.96       120.63987      971.00807      4178.3012      13284.012     -2347.7285      145.93965      1.0027959      57515.074    
   2380000   570.11611      15013.604      192.84608      984.19425      4265.2211      13215.703     -2512.2117      147.891        1.0042825      57429.934    
   2400000   583.29453      15013.07       143.17108      969.45806      4156.3667      13238.534     -2374.7471      159.97584      1.0213233      56471.716    
   2400105   580.41509      14780.237      124.28678      966.23253      4204.5464      13095.408     -2487.6229      156.82779      1.0214048      56467.211    
Loop time of 3809.42 on 24 procs for 1200000 steps with 5008 atoms

Performance: 6.804 ns/day, 3.527 hours/ns, 315.009 timesteps/s, 1.578 Matom-step/s
99.5% CPU use with 24 MPI tasks x no OpenMP threads

MPI task timing breakdown:
Section |  min time  |  avg time  |  max time  |%varavg| %total
---------------------------------------------------------------
Pair    | 1761.3     | 2009.3     | 2290.4     | 339.4 | 52.75
Bond    | 602.41     | 662.9      | 721.81     | 118.6 | 17.40
Kspace  | 586.68     | 912.92     | 1217.8     | 575.0 | 23.96
Neigh   | 51.357     | 51.418     | 51.484     |   0.5 |  1.35
Comm    | 123.8      | 125.75     | 128.34     |  12.3 |  3.30
Output  | 0.0028115  | 0.0035441  | 0.019911   |   5.7 |  0.00
Modify  | 32.694     | 34.637     | 36.006     |  17.2 |  0.91
Other   |            | 12.46      |            |       |  0.33

Nlocal:        208.667 ave         224 max         185 min
Histogram: 1 0 2 2 4 2 3 5 1 4
Nghost:        4520.96 ave        4550 max        4488 min
Histogram: 1 1 2 3 3 4 5 1 2 2
Neighs:        67013.4 ave       77719 max       55625 min
Histogram: 2 2 4 1 2 4 1 3 2 3

Total # of neighbors = 1608321
Ave neighs/atom = 321.15036
Ave special neighs/atom = 5.8594249
Neighbor list builds = 18118
Dangerous builds = 0
PPPM initialization ...
  using 12-bit tables for long-range coulomb (../kspace.cpp:342)
  G vector (1/distance) = 0.11564974
  grid = 4 4 4
  stencil order = 5
  estimated absolute RMS force accuracy = 0.27580147
  estimated relative force accuracy = 0.00083056792
  using double precision KISS FFT
  3d grid and FFT values/proc = 294 4
Generated 36 of 36 mixed pair_coeff terms from sixthpower/sixthpower mixing rule
Setting up Verlet run ...
  Unit style    : real
  Current step  : 2400105
  Time step     : 0.25
WARNING: Inconsistent image flags (../domain.cpp:815)
Per MPI rank memory allocation (min/avg/max) = 20.23 | 20.24 | 20.24 Mbytes
   Step          Temp          PotEng         E_vdwl         E_coul         E_bond        E_angle        E_dihed        E_impro        Density         Volume    
   2400105   580.41509      14780.56       124.28678      974.08265      4204.5464      13095.408     -2487.6229      156.82779      1.0214048      56467.211    
   2420000   560.83701      14824.092      138.0278       989.43437      3998.4442      13271.312     -2414.7321      127.91867      1.0220613      56430.94     
   2440000   557.00519      14716.265      169.33015      958.49358      4008.6482      13286.085     -2558.4812      137.79675      1.0202331      56532.058    
   2460000   551.81407      14629.273      120.03736      971.44678      3997.0865      13181.95      -2487.1728      131.40162      1.0305798      55964.497    
   2480000   571.87344      14781.899      167.02155      1020.3808      4099.1028      13248.054     -2608.2849      142.37848      1.0044654      57419.479    
   2500000   548.37776      14533.694      128.14658      962.24636      3975.6749      13161.569     -2545.1971      137.56048      1.0151183      56816.901    
   2520000   561.2175       14896.154      129.89476      977.82169      4179.8431      13106.967     -2362.2515      148.92898      1.012873       56942.853    
   2540000   552.33433      14611.868      171.35635      979.32691      4094.7312      13150.317     -2625.3842      126.53196      1.0166668      56730.364    
   2560000   554.87076      14690.583      141.74877      971.60957      4034.6411      13069.502     -2378.1571      136.5188       1.0087628      57174.868    
   2580000   559.79578      14397.986      66.90851       990.32428      4081.2621      13003.982     -2589.8301      131.73194      1.0352541      55711.807    
   2600000   560.95317      14632.233      136.70386      945.15925      4084.4356      13190.46      -2582.7525      145.15032      1.0233222      56361.409    
   2620000   556.4991       14583.131      171.98549      968.30893      4031.1033      13029.951     -2473.1259      141.31623      1.0191377      56592.822    
   2640000   569.75782      14550.292      99.422098      963.58461      3942.323       13093.691     -2382.3196      120.5731       1.0088003      57172.742    
   2660000   558.34396      14599.026      171.80104      965.9333       4051.2447      13125.457     -2563.9888      135.17998      1.0166009      56734.042    
   2680000   561.85588      14736.299      120.4108       958.54097      4035.8539      13203.274     -2430.3679      135.86899      1.0192217      56588.157    
   2700000   566.78964      14807.554      197.77878      968.03645      4061.6937      13178.856     -2453.5031      140.18739      1.0125759      56959.563    
   2720000   556.99409      14629.073      89.550962      982.55696      4070.8527      13057.018     -2418.4569      134.93676      1.0219382      56437.737    
   2740000   553.13674      14786.553      91.207692      1012.5127      4096.0549      13226.431     -2501.912       150.12828      1.0228754      56386.027    
   2760000   547.36088      14670.091     -24.724585      955.15591      4071.6964      13264.744     -2459.4314      149.38903      1.02592        56218.691    
   2780000   556.73529      14693.029      64.932739      958.72441      4080.4547      13171.013     -2433.3772      136.78533      1.0100831      57100.132    
   2800000   556.43253      14816.587      164.80749      978.67277      4039.398       13251.866     -2471.2062      139.74234      1.015945       56770.672    
   2820000   560.13756      14527.654      121.09818      1004.0005      3993.622       13060.532     -2505.1906      140.33457      1.0253801      56248.289    
   2840000   567.66883      14718.332      116.1856       967.67157      3924.116       13320.223     -2460.7319      137.85411      1.0326803      55850.66     
   2860000   557.60218      14603.041      115.41476      956.66781      3988.3927      13192.213     -2486.4976      123.48544      1.0151167      56816.995    
   2880000   561.29023      14596.926      74.92149       948.48404      4059.4546      13130.303     -2462.827       133.46694      1.0250328      56267.351    
   2900000   558.33261      14763.86       138.14258      996.14745      4072.2153      13209.86      -2507.7335      140.88043      1.0167604      56725.142    
   2920000   564.73735      14706.615      67.183311      975.58143      4095.8901      13177.896     -2467.3788      143.53985      1.0325613      55857.101    
   2940000   559.6268       14514.665      163.79337      960.94299      3992.4469      13120.855     -2565.5795      128.08818      1.0256815      56231.763    
   2960000   544.52973      14630.451      129.64826      949.34529      4111.5148      13105.742     -2515.1642      136.77112      1.0231652      56370.054    
   2980000   556.6108       14666.418      117.7759       969.85504      4064.8341      13212.399     -2523.2126      111.2141       1.0161402      56759.764    
   3000000   561.41656      14546.301      102.91487      963.6074       3918.3046      13171.255     -2448.17        125.58768      1.0202218      56532.686    
   3020000   556.43982      14766.383      161.88278      986.56076      4011.9928      13242.118     -2464.7104      114.7354       1.0130767      56931.401    
   3040000   569.18282      14800.749      87.114185      984.39754      4038.0481      13298.154     -2464.275       143.50335      1.0218106      56444.784    
   3060000   559.81823      14653.452      156.60929      961.28271      4039.7216      13167.51      -2516.7519      131.77603      1.0177873      56667.908    
   3080000   556.4483       14794.721      203.27816      993.47887      4098.9632      13179.21      -2518.5657      124.0495       1.022245       56420.8      
   3100000   560.63659      14790.535      145.21262      968.22622      4017.6845      13254.596     -2463.8366      155.37248      1.0166197      56732.99     
   3120000   566.9108       14712.394      80.028625      956.10492      4102.2938      13200.056     -2486.1389      145.2667       1.0075154      57245.654    
   3140000   565.07999      14644.456      143.8679       985.59711      3921.9142      13263.663     -2523.6267      138.54136      1.0078453      57226.916    
   3160000   555.07015      14791.933      173.96166      970.94561      4031.351       13199.768     -2427.058       129.39382      1.0034556      57477.263    
   3180000   564.2019       14626.666      139.78836      966.22286      4027.4062      13152.027     -2499.9167      126.7711       1.0136752      56897.79     
   3200000   566.06859      14577.211      136.83794      963.04882      3917.5449      13205.454     -2478.7157      118.90578      1.0048529      57397.336    
   3220000   565.26195      14624.579      185.73093      973.98464      4023.3489      13108.829     -2534.5888      153.42886      1.0085517      57186.832    
   3240000   567.75251      14779.787      121.88103      965.81668      3969.9888      13407.504     -2531.7773      132.37315      1.0171149      56705.37     
   3260000   553.99577      14804.117      91.836301      978.5583       4087.8963      13292.969     -2507.5162      146.8221       1.0259883      56214.947    
   3280000   553.68449      14630.138      125.854        978.598        4130.6696      13231.2       -2682.8301      132.74498      1.0091471      57153.093    
   3300000   561.25005      14816.806      142.11361      997.33694      4046.8057      13396.2       -2637.9642      157.66602      1.017594       56678.674    
   3320000   564.10688      14564.989      139.92967      964.21109      3932.3948      13204.96      -2526.2124      136.05278      1.0196283      56565.591    
   3340000   559.98138      14725.713      44.311595      1008.4929      4096.6549      13277.107     -2551.8289      137.17774      1.0219963      56434.528    
   3360000   566.18497      14641.034      78.649578      989.05376      3911.4804      13227.104     -2420.5833      140.32198      1.022025       56432.941    
   3380000   558.71542      14577.581      70.611592      965.93467      3995.8073      13257.119     -2551.4183      126.34489      1.0283023      56088.446    
   3400000   565.04966      14634.301      74.795035      969.95405      4068.4329      13198.483     -2529.1633      137.6316       1.0230926      56374.057    
   3420000   556.24927      14536.84       78.924805      999.79571      3867.3884      13259.526     -2530.2043      148.82441      1.0078595      57226.109    
   3440000   555.42889      14822.601      238.69829      982.42278      4014.8463      13213.473     -2492.933       150.93156      1.0083153      57200.24     
   3460000   573.93449      14778.372      62.159098      972.31663      4141.1838      13317.739     -2560.9892      132.3011       1.0189148      56605.204    
   3480000   564.4514       14742.582      104.57326      985.23215      4115.9853      13168.228     -2499.9416      153.37539      1.007892       57224.265    
   3500000   564.22625      14835.238      141.99454      975.10932      4069.7962      13243.648     -2459.4269      150.14682      1.0000535      57672.793    
   3520000   572.43246      14609.087      96.269656      967.46103      4047.2262      13071.835     -2423.6759      136.49173      1.021833       56443.547    
   3540000   564.77339      14772.581      177.97456      969.54516      4078.5408      13114.866     -2425.0626      144.16128      0.99715583     57840.386    
   3560000   558.77218      14820.537      210.33441      988.88666      4089.4974      13245.823     -2564.5321      136.69351      1.0093747      57140.204    
   3580000   547.56563      14729.604      170.60978      997.47401      4035.2012      13078.815     -2411.9041      145.46008      1.0094895      57133.71     
   3600000   547.43315      14947.364      164.72383      988.76564      4179.7434      13297.956     -2534.8344      137.40441      1.0033127      57485.449    
   3600105   556.76504      14671.982      222.08549      977.21835      3955.5858      13263.537     -2595.388       135.73626      1.0038945      57452.131    
Loop time of 3761 on 24 procs for 1200000 steps with 5008 atoms

Performance: 6.892 ns/day, 3.482 hours/ns, 319.064 timesteps/s, 1.598 Matom-step/s
99.5% CPU use with 24 MPI tasks x no OpenMP threads

MPI task timing breakdown:
Section |  min time  |  avg time  |  max time  |%varavg| %total
---------------------------------------------------------------
Pair    | 1625.4     | 2016       | 2262.3     | 345.0 | 53.60
Bond    | 586.33     | 662.49     | 724.46     | 124.9 | 17.61
Kspace  | 560.54     | 860.79     | 1328.9     | 607.3 | 22.89
Neigh   | 49.117     | 49.17      | 49.237     |   0.5 |  1.31
Comm    | 123.75     | 125.79     | 128.09     |  12.3 |  3.34
Output  | 0.0085643  | 0.008909   | 0.016583   |   1.7 |  0.00
Modify  | 32.556     | 34.29      | 35.492     |  16.3 |  0.91
Other   |            | 12.44      |            |       |  0.33

Nlocal:        208.667 ave         234 max         185 min
Histogram: 1 1 2 5 4 4 4 2 0 1
Nghost:        4453.42 ave        4511 max        4375 min
Histogram: 1 0 0 4 4 3 6 2 2 2
Neighs:        65750.1 ave       79911 max       54726 min
Histogram: 3 2 2 4 2 5 3 1 1 1

Total # of neighbors = 1578002
Ave neighs/atom = 315.09625
Ave special neighs/atom = 5.8594249
Neighbor list builds = 17407
Dangerous builds = 0
PPPM initialization ...
  using 12-bit tables for long-range coulomb (../kspace.cpp:342)
  G vector (1/distance) = 0.11516526
  grid = 4 4 4
  stencil order = 5
  estimated absolute RMS force accuracy = 0.2765019
  estimated relative force accuracy = 0.00083267726
  using double precision KISS FFT
  3d grid and FFT values/proc = 294 4
Generated 36 of 36 mixed pair_coeff terms from sixthpower/sixthpower mixing rule
Setting up Verlet run ...
  Unit style    : real
  Current step  : 3600105
  Time step     : 0.25
WARNING: Inconsistent image flags (../domain.cpp:815)
Per MPI rank memory allocation (min/avg/max) = 20.23 | 20.24 | 20.24 Mbytes
   Step          Temp          PotEng         E_vdwl         E_coul         E_bond        E_angle        E_dihed        E_impro        Density         Volume    
   3600105   556.76504      14671.842      222.08549      971.70063      3955.5858      13263.537     -2595.388       135.73626      1.0038945      57452.131    
   3620000   544.81886      14208.436      43.923247      971.25986      3838.0587      13025.652     -2522.113       132.65418      1.0168849      56718.199    
   3640000   532.11429      14395.414      164.83113      982.06548      3924.5374      13007.652     -2531.7908      128.79012      1.009657       57124.232    
   3660000   542.39653      14496.329      147.12035      967.12611      4039.8447      13007.587     -2507.8825      123.58308      1.0152131      56811.6      
   3680000   538.94787      14349.71       85.56577       968.59063      4006.6855      13084.389     -2648.123       133.49564      1.0171697      56702.319    
   3700000   543.40651      14664.729      128.11265      995.00402      4041.4714      13087.265     -2430.9745      124.67384      1.0090601      57158.019    
   3720000   536.36095      14436.102      38.646693      938.08773      3960.3193      13117.513     -2453.7733      115.31818      1.0165465      56737.077    
   3740000   546.31416      14338.022      9.8807171      975.08928      3853.3223      13138.013     -2483.1436      125.40134      1.0281139      56098.724    
   3760000   531.4431       14289.416      11.227786      1004.1679      3940.9041      13015.132     -2540.7122      139.04761      1.0254891      56242.311    
   3780000   534.99424      14367.918      43.650047      970.75982      4017.8446      13039.455     -2560.9567      136.59866      1.0172437      56698.189    
   3800000   537.59845      14489.182      131.76493      965.06925      3890.7197      13154.109     -2509.0412      135.95411      1.0170467      56709.176    
   3820000   537.44227      14417.104      57.779535      962.60422      3876.5112      13174.292     -2489.9813      115.63464      1.0217577      56447.704    
   3840000   541.80292      14380.512      88.715247      977.66369      4028.3207      12991.622     -2545.8639      121.51596      1.0196073      56566.757    
   3860000   548.14202      14577.564      97.664058      1010.9231      4010.9117      13192.232     -2590.1757      136.21303      1.0156144      56789.152    
   3880000   533.69001      14461.622      91.240148      990.72551      4023.512       12997.553     -2491.1189      131.17911      1.0246285      56289.551    
   3900000   543.85831      14299.889      101.98134      985.96406      3819.8715      13061.653     -2520.4413      131.51644      1.0155445      56793.058    
   3920000   549.08515      14363.834      128.5055       960.41096      3934.3295      12986.133     -2497.9502      133.53459      1.0029538      57506.015    
   3940000   538.36002      14336.299      118.74628      962.4364       3855.6608      13193.674     -2641.1622      128.42225      1.0094528      57135.784    
   3960000   534.07034      14380.515      156.0173       956.36432      3901.6427      13107.605     -2591.3809      131.51788      1.0069403      57278.348    
   3980000   537.76649      14273.642      94.635135      993.16526      3829.3056      13058.961     -2543.1016      121.23133      1.0043786      57424.439    
   4000000   553.54916      14342.474      175.48544      971.06188      3878.4461      13078.336     -2620.0301      140.32273      1.0027423      57518.147    
   4020000   525.43025      14361.636      137.39159      975.4319       3826.2288      13167.957     -2595.7507      131.56868      1.0129264      56939.853    
   4040000   527.54806      14274.41       112.89974      978.11707      3858.4427      13085.366     -2606.263       127.06458      1.0175462      56681.337    
   4060000   538.58451      14386.289      42.497075      996.68363      3942.1062      13097.403     -2550.4373      138.97368      1.0295669      56019.552    
   4080000   542.82515      14632.415      208.66041      977.08654      4051.3926      13134.827     -2587.745       129.95334      1.0102431      57091.091    
   4100000   543.54758      14335.353      157.18293      983.44375      3804.1767      13078.607     -2549.768       142.74246      1.0195966      56567.348    
   4120000   535.17429      14339.454      103.5365       967.53461      3959.4094      13042.807     -2587.3874      133.27323      1.0249391      56272.493    
   4140000   536.47544      14343.361      98.497874      974.98344      3885.1834      13100.093     -2566.5173      133.0085       1.0242212      56311.934    
   4160000   536.44139      14279.495      114.46185      958.27205      3957.5674      13028.521     -2640.2716      141.42798      1.0245974      56291.26     
   4180000   523.47699      14291.869      53.863045      970.16762      3827.7426      13160.2       -2574.0911      134.04714      1.0208331      56498.833    
   4200000   520.91768      14266.268      24.792238      954.17831      3904.995       13143.818     -2617.0362      135.98331      1.0311406      55934.057    
   4220000   532.93198      14315.278      109.87019      964.83498      4018.3483      13033.495     -2658.2891      129.19088      1.0095146      57132.288    
   4240000   541.07748      14344.326      132.96794      962.33053      3894.2211      13062.027     -2572.345       145.87209      1.0268082      56170.059    
   4260000   540.38086      14255.55       157.36276      974.40522      3893.2689      12903.316     -2518.2384      126.44747      1.0096728      57123.335    
   4280000   545.87513      14378.528      167.07817      938.1233       3954.8308      13049.965     -2594.2916      143.98632      1.0128003      56946.943    
   4300000   541.86166      14478.239      97.232494      974.48738      3999.9531      13126.029     -2579.0285      139.68336      1.0006589      57637.903    
   4320000   536.08248      14348.578      80.135581      960.43165      3860.693       13167.405     -2556.1496      116.59007      1.0233183      56361.622    
   4340000   545.88706      14225.142     -10.376813      987.60374      3890.4407      12991.696     -2482.5522      128.22053      1.0332062      55822.232    
   4360000   542.80633      14253.521      53.599439      973.49478      3837.7694      13086.683     -2555.785       137.43104      1.0148935      56829.487    
   4380000   524.88021      14356.799      79.564689      983.20206      3946.9015      13062.2       -2567.1095      133.51129      1.0213923      56467.9      
   4400000   553.89391      14491.814      140.52314      988.40741      3942.1163      12980.741     -2408.2348      129.4807       1.0093041      57144.204    
   4420000   532.96387      14426.583      106.09671      971.90779      3876.1186      13140.368     -2537.1304      149.00596      1.0168651      56719.3      
   4440000   531.6566       14384.03       83.765097      980.48284      3880.9019      13133.038     -2536.2696      121.92846      1.0284122      56082.452    
   4460000   522.09226      14445.525      142.25378      975.84419      3855.8076      13088.116     -2454.0143      118.31896      1.007346       57255.28     
   4480000   537.45858      14385.587      80.478913      961.09472      3914.3283      13045.648     -2458.6108      124.23416      1.0175183      56682.892    
   4500000   541.58419      14432.933      81.294182      992.04914      3893.7606      13074.633     -2457.2135      129.37972      1.0216228      56455.161    
   4520000   544.24715      14527.592      129.81649      1003.996       3964.13        13109.768     -2534.4344      135.32783      1.0157461      56781.784    
   4540000   548.91484      14266.824      37.030614      964.44751      3915.574       13095.612     -2587.6159      123.118        1.0294364      56026.654    
   4560000   529.24554      14450.582      94.544903      957.49367      4016.8974      13056.272     -2512.9331      118.93815      1.0256112      56235.614    
   4580000   536.21911      14480.797      137.71302      957.41912      3957.0981      13127.425     -2541.4619      124.36029      1.01357        56903.695    
   4600000   527.66126      14385.693      98.079543      990.63667      4048.4024      13047.582     -2654.5672      136.07011      1.009528       57131.528    
   4620000   543.08772      14263.537      127.30581      966.17675      3826.7849      13039.709     -2539.3409      124.01929      1.0081948      57207.076    
   4640000   547.20421      14432.52       55.559237      987.27666      4082.1602      13041.128     -2581.1136      128.27473      1.0063144      57313.973    
   4660000   534.46629      14423.81       153.36244      993.01078      3851.8339      13016.134     -2437.764       128.19367      1.0185859      56623.481    
   4680000   533.44978      14466.534      101.96705      971.23205      3850.6643      13128.602     -2438.5628      134.45999      1.017812       56666.536    
   4700000   544.65894      14527.245      174.00924      957.24599      4003.7521      12978.004     -2417.385       112.99913      0.99691008     57854.645    
   4720000   544.85182      14223.048      117.29562      996.69285      3805.564       13071.64      -2611.5506      124.67033      1.0179241      56660.291    
   4740000   543.53432      14586.719      84.987617      969.97702      4006.964       13134.983     -2474.893       145.15961      1.023062       56375.743    
   4760000   544.5203       14449.078      47.716051      957.01524      3960.197       13178.43      -2536.0751      122.73671      1.0141644      56870.344    
   4780000   538.20695      14289.975      98.569658      1009.8642      3883.5836      13081.529     -2637.7575      135.16729      1.0148274      56833.191    
   4800000   530.55223      14480.811      176.80661      966.54196      3953.5671      13076.012     -2541.6242      131.12864      1.0234608      56353.772    
   4800105   548.49287      14351.098      69.398479      967.08864      3993.6402      13046.738     -2573.0001      129.06394      1.0236238      56344.8      
Loop time of 3773.83 on 24 procs for 1200000 steps with 5008 atoms

Performance: 6.868 ns/day, 3.494 hours/ns, 317.979 timesteps/s, 1.592 Matom-step/s
99.5% CPU use with 24 MPI tasks x no OpenMP threads

MPI task timing breakdown:
Section |  min time  |  avg time  |  max time  |%varavg| %total
---------------------------------------------------------------
Pair    | 1712.8     | 2021.3     | 2300.5     | 351.5 | 53.56
Bond    | 620.95     | 661.97     | 715.51     | 113.9 | 17.54
Kspace  | 546.87     | 870.25     | 1219       | 606.9 | 23.06
Neigh   | 47.672     | 47.711     | 47.785     |   0.5 |  1.26
Comm    | 123.7      | 125.82     | 128.01     |  12.2 |  3.33
Output  | 0.003328   | 0.003946   | 0.017862   |   4.6 |  0.00
Modify  | 32.694     | 34.31      | 35.402     |  15.9 |  0.91
Other   |            | 12.49      |            |       |  0.33

Nlocal:        208.667 ave         237 max         182 min
Histogram: 2 2 4 2 2 1 5 5 0 1
Nghost:        4516.71 ave        4557 max        4473 min
Histogram: 1 2 3 2 2 6 1 4 1 2
Neighs:        67115.2 ave       84238 max       54793 min
Histogram: 1 3 5 5 1 2 4 2 0 1

Total # of neighbors = 1610765
Ave neighs/atom = 321.63838
Ave special neighs/atom = 5.8594249
Neighbor list builds = 16764
Dangerous builds = 0
PPPM initialization ...
  using 12-bit tables for long-range coulomb (../kspace.cpp:342)
  G vector (1/distance) = 0.11571062
  grid = 4 4 4
  stencil order = 5
  estimated absolute RMS force accuracy = 0.27571229
  estimated relative force accuracy = 0.00083029936
  using double precision KISS FFT
  3d grid and FFT values/proc = 294 4
Generated 36 of 36 mixed pair_coeff terms from sixthpower/sixthpower mixing rule
Setting up Verlet run ...
  Unit style    : real
  Current step  : 4800105
  Time step     : 0.25
WARNING: Inconsistent image flags (../domain.cpp:815)
Per MPI rank memory allocation (min/avg/max) = 20.23 | 20.24 | 20.24 Mbytes
   Step          Temp          PotEng         E_vdwl         E_coul         E_bond        E_angle        E_dihed        E_impro        Density         Volume    
   4800105   548.49287      14351.424      69.398479      973.47039      3993.6402      13046.738     -2573.0001      129.06394      1.0236238      56344.8      
   4820000   519.6236       14250.222      126.79833      950.17207      3787.6803      13008.599     -2472.1968      136.83719      1.0136382      56899.865    
   4840000   519.6975       14027.468      56.188289      960.22415      3891.9345      12908.113     -2631.574       129.64196      1.0192989      56583.873    
   4860000   522.66259      13931.974      60.921206      981.76816      3745.7079      12807.293     -2502.0804      126.15165      1.020224       56532.566    
   4880000   515.51731      14002.768      61.069742      958.6199       3840.056       12935.754     -2622.0375      116.07972      1.0178477      56664.548    
   4900000   527.31722      14172.017      41.326586      989.20085      3892.4371      12998.714     -2580.5574      116.74183      1.0238153      56334.263    
   4920000   512.63277      14003.937      100.25838      975.77385      3845.4844      12971.983     -2721.5662      117.79082      1.0274945      56132.54     
   4940000   519.85408      13929.578      170.04467      996.89822      3694.3423      12788.376     -2539.3769      106.86662      1.0173522      56692.145    
   4960000   516.78525      14039.485      105.1326       978.35645      3892.5095      12917         -2689.0532      122.57242      1.0293475      56031.492    
   4980000   529.26698      14040.524      27.48942       967.28618      3844.9299      12997.897     -2648.2018      137.98642      1.0136299      56900.334    
   5000000   512.64253      13997.934      42.832132      981.21647      3863.3794      12893.256     -2612.4625      117.3342       1.0273537      56140.233    
   5020000   509.43869      13955.992      49.149075      940.33092      3738.1084      12906.351     -2512.6343      121.87303      1.0221775      56424.524    
   5040000   524.23618      14264.719      45.950981      978.16986      3922.4337      12989.152     -2524.1948      140.86083      1.0179101      56661.073    
   5060000   522.20581      14091.414      128.67393      955.34072      3791.3044      13034.205     -2654.6185      123.9745       1.0312188      55929.814    
   5080000   509.93484      14061.799      25.094165      974.60184      3882.2115      12895.505     -2561.942       132.97816      1.0155292      56793.914    
   5100000   516.58188      14223.182      81.161246      967.41044      3854.7284      13005.395     -2521.1818      123.14485      1.0237403      56338.386    
   5120000   504.30393      13988.175      43.17844       982.65118      3860.4942      12941.897     -2674.4543      122.25895      1.0236762      56341.918    
   5140000   517.48619      14053.871      142.55511      999.37941      3810.2932      12888.708     -2637.3756      137.28014      1.0186095      56622.165    
   5160000   527.43595      13925.608      76.165839      962.82599      3662.7563      12956.308     -2567.3961      122.39178      1.0273918      56138.153    
   5180000   522.39175      13889.492      87.347703      944.56954      3767.8526      12972.217     -2721.1805      126.70906      1.0202343      56531.991    
   5200000   512.77868      14070.694      39.359379      987.37291      3797.716       12978.726     -2553.5504      107.83058      1.0314465      55917.47     
   5220000   519.45984      13850.975      37.778791      978.21055      3702.763       12942.058     -2638.4051      114.32857      1.0269844      56160.425    
   5240000   516.04717      13990.589      84.749569      990.77865      3777.2863      12847.649     -2553.2671      131.14399      1.021701       56450.839    
   5260000   520.96153      14165.174      62.95058       997.6228       3787.7396      13035.701     -2551.9367      117.94105      1.0194075      56577.842    
   5280000   510.83609      14138.907      37.099212      983.06489      3779.8339      13032.784     -2538.9279      132.36433      1.0179339      56659.748    
   5300000   518.83256      14047.963      57.433363      961.66563      3959.0097      12905.227     -2669.1218      121.64078      1.0185014      56628.176    
   5320000   528.60625      14077.532      159.74189      975.95354      3837.7956      12951.724     -2684.6835      123.53074      1.0180245      56654.705    
   5340000   519.4394       13815.538      18.882154      958.41508      3802.4961      12877.175     -2661.6962      107.7915       1.0396032      55478.744    
   5360000   517.95612      13992.666      39.210105      1037.0172      3798.5276      12881.599     -2595.5961      118.77981      1.0279444      56107.976    
   5380000   524.86495      13920.337      78.279209      980.39049      3730.5083      12844.412     -2550.3784      124.13394      1.0226408      56398.96     
   5400000   516.20042      13956.919      92.586811      980.2848       3754.6513      12853.439     -2551.758       114.69023      1.0177887      56667.83     
   5420000   519.55674      13973.054      72.675843      956.88066      3723.2511      12932.309     -2540.3216      114.17328      1.024275       56308.977    
   5440000   513.04238      14128.611      75.232684      1005.5903      3776.4267      12961.365     -2524.5447      121.80151      1.0322757      55872.552    
   5460000   519.41786      14219.353      57.941956      944.85276      3840.6372      13000.948     -2463.3367      124.8196       1.0309719      55943.21     
   5480000   519.3351       14192.784      52.678768      968.52393      4023.0094      12834.526     -2521.3841      123.0086       1.0192577      56586.162    
   5500000   521.75245      14007.036      69.700889      954.1712       3811.8073      13035.439     -2697.3463      119.74129      1.0300529      55993.12     
   5520000   523.28255      14078.006     -34.626419      972.09802      3850.1535      12955.348     -2509.4239      130.90282      1.0375198      55590.146    
   5540000   528.4133       14101.294     -22.267093      971.61942      3883.0448      13026.009     -2605.0446      134.62234      1.0360002      55671.684    
   5560000   525.91855      14160.459      26.26136       981.65922      3912.5523      13020.355     -2634.2495      141.2083       1.0192678      56585.598    
   5580000   506.35019      14126.569     -10.20815       975.78155      3858.9214      13050.255     -2594.9844      133.22188      1.0245316      56294.872    
   5600000   521.62494      13942.046     -57.95553       952.6394       3829.9682      12987.328     -2616.6925      134.05327      1.03545        55701.269    
   5620000   525.6853       14153.42       40.775954      969.06206      3914.3118      12984.887     -2591.015       122.83083      1.0157325      56782.544    
   5640000   528.40421      14102.85       12.014732      974.97079      3949.5115      12911.402     -2593.5623      135.12799      1.03508        55721.179    
   5660000   518.82275      13922.855      25.340781      962.84985      3727.2263      12890.51      -2516.9602      121.99302      1.0228311      56388.466    
   5680000   531.60406      14038.161     -82.832434      1001.0518      3847.8419      13021.18      -2579.5477      117.44962      1.0263333      56196.048    
   5700000   521.50105      13970.348      13.240644      969.23972      3826.4096      12933.677     -2610.5354      125.3683       1.0319029      55892.74     
   5720000   514.25801      13905.653      42.513658      979.09011      3852.9032      12874.145     -2685.7799      129.80335      1.0255799      56237.333    
   5740000   523.36721      14005.546      40.217193      962.84952      3742.6418      13049.953     -2629.5028      127.15895      1.0228185      56389.16     
   5760000   519.73636      13964.597      59.714405      945.05894      3846.0308      12978.831     -2696.9521      119.50939      1.0275205      56131.121    
   5780000   511.86012      13957.174     -51.770564      980.65703      3726.5477      13106.097     -2638.3377      121.04837      1.034565       55748.915    
   5800000   512.58201      14058.063      32.670393      946.23489      3828.5747      13015.232     -2603.098       125.95499      1.0285599      56074.399    
   5820000   517.49715      14024.868      83.528371      950.45534      3796.7599      13000.616     -2625.6153      105.66939      1.0333493      55814.503    
   5840000   519.21693      14060.301      95.961014      951.54768      3757.336       13014.832     -2610.0834      137.6381       1.0140646      56875.943    
   5860000   517.49803      13972.891     -40.9099        944.18948      3901.134       12977.214     -2651.055       129.83966      1.0294697      56024.844    
   5880000   522.62889      13991.459      54.403175      953.50271      3777.8671      12960.36      -2598.8433      130.93631      1.023977       56325.363    
   5900000   523.52247      14035.833     -21.582498      969.76571      3712.5188      12997.117     -2478.5499      142.35254      1.0388749      55517.636    
   5920000   508.83473      14110.032      58.79598       937.9523       3753.6417      13029.76      -2510.8804      128.19236      1.0226473      56398.604    
   5940000   509.56707      13994.069      48.650317      965.64511      3944.5603      12893.749     -2702.0027      130.08134      1.0205651      56513.668    
   5960000   519.9603       14083.209      72.619346      983.38276      3811.4496      13029.454     -2632.2245      105.80895      1.0270659      56155.967    
   5980000   519.08792      13977.596      16.716716      974.39707      3793.3083      12977.489     -2622.3575      124.54546      1.041091       55399.46     
   6000000   517.71671      13911.994     -23.871065      942.12321      3785.8709      12937.439     -2575.2748      133.08883      1.0284545      56080.143    
   6000105   521.30919      13742.918     -9.2286754      950.26919      3770.9098      12824.946     -2629.8078      123.28715      1.0300922      55990.989    
Loop time of 3831.63 on 24 procs for 1200000 steps with 5008 atoms

Performance: 6.765 ns/day, 3.548 hours/ns, 313.183 timesteps/s, 1.568 Matom-step/s
99.5% CPU use with 24 MPI tasks x no OpenMP threads

MPI task timing breakdown:
Section |  min time  |  avg time  |  max time  |%varavg| %total
---------------------------------------------------------------
Pair    | 1682.8     | 2036       | 2372.5     | 349.9 | 53.14
Bond    | 582.71     | 661.68     | 742.7      | 141.2 | 17.27
Kspace  | 498.22     | 914.74     | 1321.6     | 607.4 | 23.87
Neigh   | 46.151     | 46.222     | 46.29      |   0.6 |  1.21
Comm    | 124.03     | 126.11     | 128.89     |  12.6 |  3.29
Output  | 0.0034724  | 0.0039862  | 0.015464   |   3.8 |  0.00
Modify  | 32.732     | 34.536     | 35.962     |  16.8 |  0.90
Other   |            | 12.38      |            |       |  0.32

Nlocal:        208.667 ave         221 max         184 min
Histogram: 1 0 3 1 1 3 3 2 4 6
Nghost:        4559.46 ave        4613 max        4513 min
Histogram: 3 0 2 3 7 1 5 0 2 1
Neighs:        67597.7 ave       76509 max       56818 min
Histogram: 1 2 1 6 1 0 4 3 4 2

Total # of neighbors = 1622345
Ave neighs/atom = 323.95068
Ave special neighs/atom = 5.8594249
Neighbor list builds = 16150
Dangerous builds = 0
PPPM initialization ...
  using 12-bit tables for long-range coulomb (../kspace.cpp:342)
  G vector (1/distance) = 0.11588742
  grid = 4 4 4
  stencil order = 5
  estimated absolute RMS force accuracy = 0.27545183
  estimated relative force accuracy = 0.00082951501
  using double precision KISS FFT
  3d grid and FFT values/proc = 294 4
Generated 36 of 36 mixed pair_coeff terms from sixthpower/sixthpower mixing rule
Setting up Verlet run ...
  Unit style    : real
  Current step  : 6000105
  Time step     : 0.25
WARNING: Inconsistent image flags (../domain.cpp:815)
Per MPI rank memory allocation (min/avg/max) = 20.23 | 20.24 | 20.24 Mbytes
   Step          Temp          PotEng         E_vdwl         E_coul         E_bond        E_angle        E_dihed        E_impro        Density         Volume    
   6000105   521.30919      13742.966     -9.2286754      952.28086      3770.9098      12824.946     -2629.8078      123.28715      1.0300922      55990.989    
   6020000   494.50307      13673.348     -70.964343      926.01965      3695.6187      12923.731     -2643.1778      131.36387      1.0401886      55447.52     
   6040000   508.83509      13661.187     -0.98336268     972.01575      3775.233       12786.536     -2697.6927      114.38551      1.0332219      55821.387    
   6060000   501.48108      13660.043     -43.048744      975.25041      3601.0333      12913.419     -2616.7483      119.67341      1.0403407      55439.416    
   6080000   512.73962      13641.302      2.4835063      952.89277      3702.8606      12863.406     -2714.0032      123.56745      1.033143       55825.648    
   6100000   506.63725      13797.829      11.823615      953.14398      3863.9937      12900.065     -2753.9618      112.14259      1.0347284      55740.113    
   6120000   499.26787      13639.249     -2.4282004      984.69673      3591.4668      12890.076     -2651.9427      115.97747      1.0299203      56000.333    
   6140000   503.5312       13723.077     -45.938412      977.98522      3708.2713      12850.811     -2608.2285      129.08184      1.048365       55015.073    
   6160000   493.85571      13795.402      37.687246      955.49042      3777.1172      12902.042     -2702.9686      116.29418      1.037572       55587.352    
   6180000   488.99174      13445.018     -3.6557417      949.59442      3705.7334      12724.8       -2746.0024      103.73589      1.0429851      55298.853    
   6200000   498.65625      13646.131     -18.48658       947.75014      3789.2854      12874.939     -2779.435       121.33784      1.0349837      55726.366    
   6220000   500.59636      13623.471     -55.703694      964.56252      3759.991       12789.647     -2667.4045      120.98754      1.0302515      55982.329    
   6240000   500.98775      13772.865      48.347314      989.47435      3711.2694      12967.793     -2787.5728      132.26452      1.028361       56085.247    
   6260000   492.5063       13674.862      24.808483      975.14917      3789.6843      12799.574     -2738.3219      111.9897       1.0227735      56391.645    
   6280000   496.56976      13628.636      37.229948      965.019        3636.9504      12768.698     -2614.6856      125.12779      1.040808       55414.524    
   6300000   508.59318      13662.949      10.998979      961.87187      3569.3985      12949.649     -2653.2876      113.16132      1.0327692      55845.853    
   6320000   511.4885       13666.272     -15.654475      969.9224       3629.6504      12832.75      -2589.7912      128.474        1.0345824      55747.977    
   6340000   502.76564      13753.186     -49.689774      955.07337      3720.3823      12849.295     -2560.7387      127.72504      1.0234544      56354.128    
   6360000   510.45501      13638.772      37.471127      943.49044      3699.9069      12886.225     -2757.7356      117.95172      1.0334706      55807.952    
   6380000   495.35497      13624.935      11.022213      968.80605      3652.5602      12760.053     -2596.4768      117.79651      1.0284128      56082.418    
   6400000   484.97759      13686.201      22.603529      960.33237      3732.6978      12758.916     -2622.1812      123.11304      1.029242       56037.237    
   6420000   503.34107      13689.871      1.1983785      986.48967      3665.8719      12897.046     -2686.0101      115.35775      1.0338243      55788.858    
   6440000   496.85452      13711.346     -34.103347      981.49937      3678.58        12895.95      -2632.4121      111.47286      1.0330052      55833.096    
   6460000   494.50174      13654.557      41.38158       958.04382      3598.4212      12821.072     -2597.9604      122.44364      1.0259855      56215.102    
   6480000   500.1234       13783.597      64.042632      989.70681      3757.6325      12899.445     -2754.7985      116.18302      1.0351068      55719.736    
   6500000   492.34137      13687.337     -6.3216854      968.03432      3636.5789      12921.233     -2670.1623      126.90725      1.0416237      55371.127    
   6520000   511.52612      13806.007      14.143252      970.39191      3735.9856      12833.499     -2575.8739      116.7161       1.0359458      55674.611    
   6540000   492.10984      13606.408     -90.061806      952.21421      3706.9522      12786.873     -2581.1946      120.43252      1.0391588      55502.468    
   6560000   499.04026      13729.538     -25.565957      961.40796      3721.6952      12907.093     -2670.6683      124.59733      1.0453785      55172.244    
   6580000   500.22351      13553.464      14.825131      971.11789      3598.7537      12809.083     -2650.6203      99.106589      1.0314599      55916.745    
   6600000   493.73383      13728.827      101.42196      972.95848      3686.8655      12840.443     -2704.0065      119.82271      1.0090597      57158.044    
   6620000   493.36277      13664.285      42.48472       964.66038      3654.8687      12765.695     -2589.0035      114.47109      1.0279592      56107.169    
   6640000   502.49922      13670.155      30.35011       970.74425      3702.5346      12758.225     -2618.1159      115.89457      1.0392434      55497.949    
   6660000   494.3119       13647.231      3.3289015      950.71605      3667.2529      12847.585     -2656.0379      122.51607      1.0304535      55971.352    
   6680000   499.51903      13617.151     -19.047031      974.30718      3702.1976      12729.239     -2585.6498      103.72634      1.0344974      55752.559    
   6700000   500.68509      13681.751      52.442926      975.31974      3710.923       12888.138     -2774.0419      117.21354      1.0241773      56314.35     
   6720000   500.2559       13718.553      54.33996       955.41988      3728.8728      12868.148     -2715.2079      115.81632      1.0236134      56345.371    
   6740000   492.61622      13569.047      4.8260599      960.21808      3667.7979      12784.703     -2664.2404      104.76534      1.0213482      56470.336    
   6760000   496.53496      13645.432      11.424427      947.87986      3502.7241      12972.402     -2614.2101      114.21815      1.0337033      55795.392    
   6780000   509.58596      13709.714      38.545862      966.12819      3714.1484      12808.636     -2646.3566      117.14157      1.0247596      56282.351    
   6800000   505.19735      13709.703      60.2338        950.6959       3823.0971      12855.301     -2806.5866      116.2404       1.033549       55803.72     
   6820000   502.90671      13687.222      22.497762      961.12215      3711.9208      12820.322     -2655.6507      115.71436      1.0192765      56585.115    
   6840000   499.8755       13672.04      -12.570377      961.0071       3767.0802      12899.245     -2774.7914      121.76757      1.0298238      56005.577    
   6860000   496.06671      13734.748      42.56247       973.01472      3720.1799      12909.681     -2743.3581      120.92153      1.0340941      55774.302    
   6880000   491.61478      13671.228     -29.219544      982.65055      3685.3791      12834.766     -2626.6334      113.50904      1.0278877      56111.072    
   6900000   492.90413      13745.127      12.215412      979.5582       3773.276       12804.578     -2651.8895      117.08125      1.0280706      56101.086    
   6920000   493.41042      13571.269      26.975263      957.49901      3637.6667      12739.428     -2611.6705      110.74467      1.0231547      56370.636    
   6940000   501.20189      13684.629      62.871294      963.71826      3777.3239      12675.943     -2633.1246      127.77368      1.0231054      56373.352    
   6960000   500.02993      13760.819     -56.810072      957.39453      3740.9107      12867.542     -2573.7496      115.16172      1.0439446      55248.023    
   6980000   510.88795      13612.368     -11.078265      965.78768      3532.8815      12833.447     -2541.4225      122.46464      1.0241674      56314.891    
   7000000   487.10244      13581.893     -86.255321      983.91296      3607.5631      12847.129     -2610.7592      129.89592      1.0263622      56194.466    
   7020000   498.83715      13625.324     -37.019318      993.42358      3694.0592      12763.934     -2638.5973      138.35325      1.0321017      55881.974    
   7040000   493.92668      13598.546     -31.858254      963.66843      3547.0116      12820.831     -2543.7986      131.6879       1.0381992      55553.767    
   7060000   497.42679      13777.447     -56.483142      998.22454      3622.5331      12991.104     -2618.2705      129.28062      1.0373339      55600.108    
   7080000   501.68298      13716.48      -10.22659       962.18812      3666.9909      13006.46      -2742.5288      123.1689       1.0215092      56461.435    
   7100000   499.8175       13521.301     -94.140116      965.48305      3742.2413      12854.121     -2775.0813      117.61834      1.0379192      55568.758    
   7120000   506.51855      13616.71      -46.847741      969.59824      3658.5411      12823.971     -2633.1382      134.3546       1.0330851      55828.776    
   7140000   495.84805      13660.316     -21.945044      938.23138      3695.2988      13041.153     -2801.1244      98.973842      1.0435303      55269.959    
   7160000   496.86451      13617.11       2.5369084      943.17182      3758.8129      12730.9       -2653.8437      124.45303      1.0319155      55892.054    
   7180000   513.78363      13645.689      0.53642593     992.47059      3661.4914      12920.699     -2746.9812      106.94329      1.0302312      55983.429    
   7200000   495.84616      13672.391      9.078733       1020.8273      3602.595       12880.673     -2682.819       130.69718      1.0310491      55939.02     
   7200105   488.16554      13521.107      0.72477977     1023.3927      3630.5464      12878.468     -2848.5041      124.90106      1.0302852      55980.496    
Loop time of 3786.79 on 24 procs for 1200000 steps with 5008 atoms

Performance: 6.845 ns/day, 3.506 hours/ns, 316.891 timesteps/s, 1.587 Matom-step/s
99.5% CPU use with 24 MPI tasks x no OpenMP threads

MPI task timing breakdown:
Section |  min time  |  avg time  |  max time  |%varavg| %total
---------------------------------------------------------------
Pair    | 1717.2     | 2053.2     | 2351.9     | 311.6 | 54.22
Bond    | 604.53     | 661.39     | 730.85     | 124.2 | 17.47
Kspace  | 488.22     | 855.31     | 1240.4     | 564.6 | 22.59
Neigh   | 43.604     | 43.644     | 43.688     |   0.4 |  1.15
Comm    | 124.56     | 126.52     | 129.41     |  12.9 |  3.34
Output  | 0.015777   | 0.016235   | 0.025785   |   1.6 |  0.00
Modify  | 32.333     | 34.307     | 35.698     |  17.6 |  0.91
Other   |            | 12.41      |            |       |  0.33

Nlocal:        208.667 ave         228 max         186 min
Histogram: 1 0 3 1 7 2 4 3 0 3
Nghost:        4543.88 ave        4571 max        4519 min
Histogram: 2 4 2 2 1 5 2 3 2 1
Neighs:        67482.9 ave       77413 max       52685 min
Histogram: 1 1 1 3 1 3 7 2 1 4

Total # of neighbors = 1619590
Ave neighs/atom = 323.40056
Ave special neighs/atom = 5.8594249
Neighbor list builds = 15388
Dangerous builds = 0
PPPM initialization ...
  using 12-bit tables for long-range coulomb (../kspace.cpp:342)
  G vector (1/distance) = 0.11589268
  grid = 4 4 4
  stencil order = 5
  estimated absolute RMS force accuracy = 0.27544405
  estimated relative force accuracy = 0.00082949156
  using double precision KISS FFT
  3d grid and FFT values/proc = 294 4
Generated 36 of 36 mixed pair_coeff terms from sixthpower/sixthpower mixing rule
Setting up Verlet run ...
  Unit style    : real
  Current step  : 7200105
  Time step     : 0.25
WARNING: Inconsistent image flags (../domain.cpp:815)
Per MPI rank memory allocation (min/avg/max) = 20.23 | 20.24 | 20.24 Mbytes
   Step          Temp          PotEng         E_vdwl         E_coul         E_bond        E_angle        E_dihed        E_impro        Density         Volume    
   7200105   488.16554      13521.104      0.72477977     1023.4484      3630.5464      12878.468     -2848.5041      124.90106      1.0302852      55980.496    
   7220000   475.90182      13364.928     -70.640734      955.35958      3579.0836      12772.032     -2697.2773      116.09533      1.0510026      54877.008    
   7240000   484.52969      13305.148     -103.63363      923.36756      3605.4922      12759.922     -2705.5468      114.65392      1.0501061      54923.86     
   7260000   481.07475      13145.825     -146.09289      948.53985      3493.4385      12655.889     -2618.7086      102.95669      1.051093       54872.288    
   7280000   481.53585      13241.518     -93.556356      956.67014      3530.4373      12641.28      -2618.379       113.92799      1.0470095      55086.301    
   7300000   478.42537      13482.922      12.165958      956.60856      3614.8172      12741.067     -2663.5214      110.94951      1.0421246      55344.511    
   7320000   483.21728      13392.374     -55.428134      944.71443      3493.6507      12906.497     -2710.9748      102.68139      1.0422294      55338.947    
   7340000   479.91589      13354.825     -76.615198      995.27069      3610.6588      12786.858     -2767.1754      95.852341      1.0453591      55173.27     
   7360000   476.05697      13273.28      -79.590368      958.05438      3479.7935      12747.632     -2660.4025      116.73399      1.0303944      55974.562    
   7380000   485.28283      13198.41      -59.540799      961.57298      3538.8268      12754.61      -2805.5732      98.285269      1.0459481      55142.199    
   7400000   481.57994      13369.966     -93.294166      982.16899      3673.3979      12693.821     -2711.1946      113.95377      1.0426711      55315.504    
   7420000   485.17911      13241.166     -63.404583      955.45252      3504.9857      12760.699     -2739.2227      111.7043       1.0471548      55078.654    
   7440000   479.98361      13380.357     -23.384974      974.24346      3733.4944      12668.229     -2792.8541      108.39454      1.0350141      55724.727    
   7460000   477.33514      13356.659     -63.192977      978.02828      3620.9271      12755.34      -2767.4867      121.29983      1.0422827      55336.118    
   7480000   476.27985      13203.01      -96.080447      971.24847      3408.4194      12817.39      -2701.3038      92.633103      1.0396097      55478.394    
[...]
  24060000   199.06976      8813.3389     -637.92685      930.02213      2023.4556      11241.584     -3442.4292      17.423559      1.1305552      51015.537    
  24080000   199.50882      8785.3945     -672.23399      910.98445      2015.7638      11203.695     -3388.3757      34.039941      1.1359953      50771.231    
  24100000   197.35923      8729.0814     -656.193        915.02676      2019.7943      11208.849     -3459.0756      18.541296      1.1324819      50928.742    
  24120000   196.43063      8811.8561     -654.53921      930.49601      2011.4624      11275.207     -3459.0096      26.343401      1.1305701      51014.864    
  24140000   202.55907      8807.5808     -659.18242      927.58735      1989.8334      11234.046     -3394.6508      28.186798      1.1265607      51196.424    
  24160000   200.14202      8800.2627     -703.49338      937.85221      1968.8842      11293.716     -3407.9131      29.042711      1.132639       50921.68     
  24180000   206.19306      8810.0955     -668.98367      944.487        2084.8679      11204.06      -3460.0816      23.804757      1.1343362      50845.489    
  24200000   199.66459      8699.4282     -667.35325      922.30169      1989.6247      11235.015     -3486.9739      24.189526      1.1307674      51005.963    
  24220000   198.77643      8814.3554     -653.61159      934.48287      2006.2217      11274.063     -3458.6         29.665559      1.1330127      50904.884    
  24240000   195.79542      8660.4433     -680.31795      926.48105      2014.705       11184.81      -3485.1005      18.200771      1.1278909      51136.041    
  24260000   201.54643      8801.1896     -678.42963      927.20174      2003.7561      11243.84      -3399.5625      22.711217      1.1286257      51102.75     
  24280000   202.08849      8734.9944     -672.87991      939.15609      2031.0614      11283.385     -3553.9918      26.08919       1.137339       50711.248    
  24300000   197.81815      8773.9174     -658.34203      937.17801      1974.2692      11238.439     -3423.1138      23.961582      1.1344479      50840.483    
  24320000   202.02828      8745.5619     -714.52605      920.82347      2029.5524      11329.889     -3522.5739      20.864006      1.126429       51202.411    
  24340000   202.14868      8721.8357     -673.19298      923.01711      1968.2932      11257.618     -3452.7703      16.875758      1.1264379      51202.002    
  24360000   201.34783      8757.2955     -669.32145      901.79613      2023.6101      11271.123     -3476.6089      24.033933      1.1291951      51076.985    
  24380000   199.20072      8773.9488     -624.53526      936.38941      1971.5333      11243.476     -3463.4889      28.672481      1.124867       51273.509    
  24400000   199.96997      8751.9728     -654.63305      915.95953      1972.3889      11188.339     -3381.3741      28.606367      1.1316004      50968.413    
  24420000   201.5152       8733.0484     -680.97818      924.59821      2044.3143      11191.275     -3455.0073      26.829391      1.1338996      50865.067    
  24440000   199.49656      8797.2596     -672.78391      923.4682       2038.5565      11259.601     -3457.8784      24.468904      1.1278387      51138.409    
  24460000   198.63518      8777.942      -703.23331      918.06336      1983.8073      11324.441     -3453.3614      26.981003      1.132106       50945.651    
  24480000   200.04569      8835.3312     -660.77163      934.63719      2044.3983      11265.262     -3459.2313      28.781674      1.1282493      51119.802    
  24500000   200.34761      8745.224      -694.56299      932.19329      2026.4666      11230.152     -3455.7504      24.97974       1.133034       50903.926    
  24520000   198.28484      8722.5334     -693.29936      931.205        2004.7305      11232.705     -3462.2974      27.436334      1.1275572      51151.179    
  24540000   198.91889      8710.3521     -683.2349       935.58888      1985.886       11263.005     -3503.4294      30.474239      1.1291525      51078.909    
  24560000   200.79252      8791.5982     -650.35718      923.49798      2023.8777      11312.787     -3525.4317      25.408571      1.1225686      51378.49     
  24580000   201.04901      8718.3382     -666.17375      931.70216      1979.6219      11202.001     -3431.2095      19.761808      1.1288069      51094.547    
  24600000   202.61526      8765.483      -672.95874      931.25435      1959.4646      11287.414     -3443.5049      21.166702      1.1295372      51061.512    
  24620000   203.00879      8748.7978     -668.055        948.55539      2001.2272      11256.91      -3497.9829      25.428944      1.130006       51040.331    
  24640000   199.1656       8751.0258     -656.31142      938.39029      2013.0696      11259.9       -3512.0857      25.938844      1.1230264      51357.543    
  24660000   195.75958      8840.7514     -640.93406      944.9343       1976.5147      11221.362     -3374.5893      31.002234      1.1302723      51028.305    
  24680000   195.938        8805.0921     -687.38392      929.29036      2060.3112      11242.165     -3455.9699      34.168801      1.1338439      50867.563    
  24700000   197.90172      8699.6492     -672.68035      948.06003      1908.014       11223.18      -3417.043       28.093604      1.1291862      51077.384    
  24720000   198.5203       8753.5428     -676.7258       933.30256      1997.5604      11286.15      -3490.5019      22.028515      1.1284934      51108.741    
  24740000   200.61384      8780.7702     -678.06307      939.48582      2042.1221      11259.005     -3483.9896      19.693034      1.1323907      50932.842    
  24760000   200.03312      8787.8616     -680.56531      943.7386       1992.3951      11204.971     -3390.0283      35.219969      1.130133       51034.592    
  24780000   196.89657      8791.1675     -685.77938      938.99597      2017.1113      11240.785     -3423.9252      22.041649      1.1315619      50970.147    
  24800000   203.52909      8768.2491     -678.77127      929.5794       2022.8334      11247.996     -3463.0484      27.448898      1.129659       51056.009    
  24820000   199.79007      8757.2902     -659.99138      941.9053       2011.5392      11161.718     -3402.1503      22.392017      1.1275483      51151.58     
  24840000   204.64217      8737.7281     -691.87929      918.39249      2018.3028      11209.431     -3428.3801      29.568382      1.1376848      50695.834    
  24860000   202.53372      8755.2334     -695.8998       945.83874      1975.1767      11272.016     -3446.1344      22.633402      1.1297823      51050.434    
  24880000   203.28015      8741.3159     -623.61599      931.01579      1965.8106      11186.752     -3424.4434      24.232057      1.1318174      50958.644    
  24900000   199.57078      8760.7383     -656.53752      937.79232      1998.0527      11268.733     -3501.5835      32.20986       1.1313596      50979.261    
  24920000   203.74703      8707.1297     -650.53222      923.76973      2011.3265      11188.66      -3470.5208      22.18889       1.1252266      51257.125    
  24940000   202.7604       8735.7683     -673.22499      923.74432      2029.5817      11265.699     -3512.2619      20.476545      1.1279676      51132.565    
  24960000   200.45108      8749.9361     -650.42374      936.70508      2006.479       11225.795     -3476.7115      26.42765       1.1268865      51181.622    
  24980000   200.90834      8775.4104     -620.32382      925.21838      1971.4664      11243.548     -3449.6049      22.637089      1.1280803      51127.459    
  25000000   204.20338      8759.9469     -700.59079      931.11544      2007.1302      11269.52      -3453.2422      24.423513      1.130818       51003.677    
  25020000   202.49851      8715.4014     -671.50918      935.336        2000.4897      11215.959     -3471.6672      24.876318      1.1352982      50802.404    
  25040000   198.88314      8739.5882     -682.91937      937.43019      1993.4336      11330.668     -3544.6482      23.84708       1.1355189      50792.532    
  25060000   198.24577      8806.297      -628.5976       936.55455      2028.0408      11249.568     -3485.1142      24.20321       1.1338053      50869.295    
  25080000   197.98927      8761.9733     -651.59951      934.44474      1968.3723      11259.587     -3452.7461      22.02556       1.1268694      51182.399    
  25100000   201.72616      8784.8286     -669.25656      920.87096      2044.8021      11281.043     -3494.86        19.786406      1.1273897      51158.777    
  25120000   201.7986       8749.5165     -699.25269      917.41251      1990.5997      11251.574     -3413.7205      20.860344      1.1367229      50738.732    
  25140000   200.89995      8783.0957     -657.91212      929.71109      1996.4717      11268.893     -3462.5555      25.755553      1.1326317      50922.004    
  25160000   201.64756      8736.2563     -664.4314       926.67052      1988.1246      11211.526     -3438.4284      30.447135      1.1329421      50908.056    
  25180000   198.11489      8765.5427     -701.86678      924.63734      2047.2536      11197.224     -3406.1978      22.226624      1.1282318      51120.593    
  25200000   196.05356      8739.6226     -647.5302       937.97075      2030.3405      11153.009     -3434.4522      18.568571      1.1313311      50980.545    
  25200105   199.53688      8727.5105     -672.49576      934.93575      2029.5723      11208.988     -3482.4246      27.059314      1.1287994      51094.886    
Loop time of 3963.77 on 24 procs for 1200000 steps with 5008 atoms

Performance: 6.539 ns/day, 3.670 hours/ns, 302.742 timesteps/s, 1.516 Matom-step/s
99.5% CPU use with 24 MPI tasks x no OpenMP threads

MPI task timing breakdown:
Section |  min time  |  avg time  |  max time  |%varavg| %total
---------------------------------------------------------------
Pair    | 1989.3     | 2249.3     | 2600.2     | 341.3 | 56.75
Bond    | 588.18     | 654.5      | 733.49     | 145.2 | 16.51
Kspace  | 470.3      | 865.29     | 1136.1     | 612.4 | 21.83
Neigh   | 18.57      | 18.593     | 18.615     |   0.3 |  0.47
Comm    | 127.81     | 129.78     | 132.5      |  13.0 |  3.27
Output  | 0.01069    | 0.01138    | 0.022936   |   2.3 |  0.00
Modify  | 31.776     | 33.762     | 35.305     |  17.4 |  0.85
Other   |            | 12.49      |            |       |  0.32

Nlocal:        208.667 ave         237 max         194 min
Histogram: 3 5 3 6 0 3 3 0 0 1
Nghost:        4834.33 ave        4906 max        4770 min
Histogram: 1 3 3 4 1 5 2 2 2 1
Neighs:          73894 ave       90728 max       65248 min
Histogram: 4 3 4 4 4 1 3 0 0 1

Total # of neighbors = 1773456
Ave neighs/atom = 354.1246
Ave special neighs/atom = 5.8594249
Neighbor list builds = 6352
Dangerous builds = 0
PPPM initialization ...
  using 12-bit tables for long-range coulomb (../kspace.cpp:342)
  G vector (1/distance) = 0.11847161
  grid = 4 4 4
  stencil order = 5
  estimated absolute RMS force accuracy = 0.27140254
  estimated relative force accuracy = 0.0008173207
  using double precision KISS FFT
  3d grid and FFT values/proc = 294 4
Generated 36 of 36 mixed pair_coeff terms from sixthpower/sixthpower mixing rule
Setting up Verlet run ...
  Unit style    : real
  Current step  : 25200105
  Time step     : 0.25
WARNING: Inconsistent image flags (../domain.cpp:815)
Per MPI rank memory allocation (min/avg/max) = 20.23 | 20.24 | 20.24 Mbytes
   Step          Temp          PotEng         E_vdwl         E_coul         E_bond        E_angle        E_dihed        E_impro        Density         Volume    
  25200105   199.53688      8727.5159     -672.49576      935.17706      2029.5723      11208.988     -3482.4246      27.059314      1.1287994      51094.886    
  25220000   181.98737      8507.9259     -690.68569      935.91032      1936.8304      11152.414     -3530.8502      22.35872       1.134359       50844.468    
  25240000   179.46085      8465.4853     -698.81453      922.46069      1839.7405      11138.352     -3443.8068      25.221897      1.1401731      50585.195    
  25260000   180.40587      8520.2144     -701.76107      942.7741       1931.7954      11119.877     -3473.7357      18.715724      1.1316132      50967.836    
  25280000   182.34048      8506.3521     -707.04409      938.33495      1917.7262      11165.066     -3514.8588      25.398094      1.1396243      50609.557    
  25300000   180.03149      8465.8302     -721.93813      925.11803      1926.1659      11123.306     -3486.4285      17.165647      1.1489757      50197.648    
  25320000   183.49568      8460.6351     -711.11855      931.70665      1867.6683      11127.222     -3452.3905      15.398472      1.1323689      50933.822    
  25340000   181.09263      8442.2419     -669.88236      924.58087      1864.8029      11132.85      -3506.0452      14.319612      1.1359098      50775.05     
  25360000   180.40466      8457.5243     -705.37668      929.33342      1902.877       11163.396     -3531.2616      16.627036      1.1349198      50819.342    
  25380000   180.53652      8448.1895     -701.5416       938.41574      1881.8752      11157.97      -3529.4686      19.056772      1.1321454      50943.88     
  25400000   179.30536      8448.5123     -660.91874      925.61414      1853.7676      11126.54      -3493.4941      15.383843      1.1312366      50984.806    
  25420000   183.14472      8440.8265     -736.40083      922.57334      1891.5272      11093.344     -3429.7677      16.78384       1.1371722      50718.687    
  25440000   180.95226      8459.4082     -671.07877      939.79969      1911.6234      11050.774     -3464.6093      10.846164      1.1402056      50583.754    
  25460000   184.08744      8386.9244     -721.17757      928.6836       1882.1063      11133.782     -3531.7561      13.474606      1.1338079      50869.181    
  25480000   183.12725      8432.3204     -713.5472       913.34119      1884.8696      11132.015     -3490.3907      24.084158      1.1340964      50856.239    
  25500000   179.86715      8414.6592     -690.417        931.9555       1847.963       11122.795     -3495.2113      15.494236      1.1352159      50806.088    
  25520000   180.39396      8483.0487     -706.14254      925.81492      1929.2066      11119.941     -3492.5862      24.610655      1.1374257      50707.382    
  25540000   180.66498      8417.9847     -701.23303      932.49288      1889.0337      11117.478     -3521.5436      19.58927       1.1351205      50810.358    
  25560000   178.62836      8429.9998     -734.84509      930.50066      1857.9958      11175.974     -3500.1186      18.916653      1.1393116      50623.445    
  25580000   180.41456      8522.3755     -703.34752      941.68269      1885.3484      11156.585     -3462.7381      22.671816      1.1370256      50725.224    
  25600000   180.46623      8474.107      -719.98978      933.6846       1914.7729      11156.725     -3509.8648      16.831675      1.1356605      50786.198    
  25620000   175.90991      8421.164      -733.06412      927.01175      1913.8582      11065.156     -3450.878       17.353936      1.1351217      50810.304    
  25640000   179.15423      8445.3174     -678.13381      923.59436      1903.2432      11121.767     -3522.792       14.937745      1.1332588      50893.826    
  25660000   181.47236      8455.3516     -719.51401      926.53988      1908.2247      11074.69      -3430.5104      13.533419      1.1304159      51021.82     
  25680000   182.01271      8472.1078     -704.76939      924.65783      1873.4301      11158.899     -3485.1707      23.216897      1.1396147      50609.982    
  25700000   179.40033      8453.0209     -721.36319      900.45795      1848.919       11145.9       -3427.5946      24.417048      1.138477       50660.556    
  25720000   180.22418      8465.7123     -684.18915      932.771        1889.4123      11087.178     -3457.4438      16.323689      1.1364519      50750.83     
  25740000   180.62321      8479.3793     -706.86819      934.05964      1878.4644      11148.768     -3473.347       16.561098      1.1351883      50807.321    
  25760000   178.75464      8425.725      -698.5953       929.80889      1877.8697      11162.73      -3544.1533      15.596792      1.1328244      50913.342    
  25780000   179.35654      8413.3252     -719.97752      933.80919      1893.3308      11141.162     -3532.6095      16.009847      1.1373619      50710.226    
  25800000   179.67206      8469.3693     -724.44419      928.5762       1934.8833      11155.241     -3525.8181      18.252833      1.1347787      50825.66     
  25820000   182.75965      8426.5402     -704.12097      930.44402      1908.0682      11097.38      -3504.0555      15.884753      1.1342024      50851.488    
  25840000   179.40433      8448.5316     -692.17019      908.12688      1907.4674      11137.252     -3510.214       15.705113      1.1399566      50594.8      
  25860000   181.04825      8457.9076     -683.60631      933.86615      1930.4632      11124.579     -3546.3044      16.46786       1.1350574      50813.181    
  25880000   179.39697      8519.9853     -674.66973      931.79986      1932.6024      11141.949     -3517.0182      23.026884      1.1301336      51034.567    
  25900000   178.0157       8437.3696     -747.91257      930.65986      1856.2307      11183.993     -3482.2632      14.463556      1.1359814      50771.85     
  25920000   180.0696       8476.7934     -687.56253      930.34741      1922.1314      11153.455     -3541.3691      17.528589      1.1335779      50879.502    
  25940000   182.97161      8484.0901     -728.29897      929.45834      1945.234       11190.522     -3555.4486      20.703312      1.1368984      50730.898    
  25960000   178.1976       8445.1668     -700.1126       927.81117      1909.9435      11115.051     -3503.7318      14.546288      1.1430784      50456.625    
  25980000   178.972        8428.6715     -717.05728      938.12788      1876.1683      11157.136     -3532.2689      24.530844      1.1286478      51101.752    
  26000000   182.60242      8397.7368     -713.19291      912.8364       1877.7589      11096.538     -3470.7122      12.19369       1.1346857      50829.829    
  26020000   182.02675      8469.3481     -753.22504      926.38539      1886.356       11233.767     -3517.9864      12.537993      1.1331111      50900.464    
  26040000   180.78684      8421.1879     -727.37824      925.19629      1869.4506      11132.359     -3479.5806      19.366664      1.1372764      50714.037    
  26060000   178.29711      8415.9357     -713.67018      946.37796      1883.6812      11098.399     -3498.443       17.627732      1.143772       50426.026    
  26080000   177.12482      8472.7094     -676.87607      920.94512      1935.4518      11136.296     -3534.4598      9.4634599      1.1343325      50845.656    
  26100000   184.26322      8463.3324     -724.00363      933.89866      1906.4217      11155.008     -3510.7777      20.316325      1.1324237      50931.358    
  26120000   181.1542       8460.7577     -721.70942      924.52364      1878.7254      11133.784     -3458.2419      21.274395      1.1349136      50819.621    
  26140000   179.19828      8492.446      -695.69549      922.20177      1912.4797      11169.664     -3517.3215      19.113337      1.1334178      50886.69     
  26160000   180.68296      8436.5754     -709.97721      924.81662      1861.2377      11202.526     -3541.6123      17.744814      1.1309488      50997.778    
  26180000   177.25906      8443.0084     -695.98342      931.38874      1870.7184      11070.213     -3429.8067      14.520021      1.1448968      50376.487    
  26200000   176.04401      8466.099      -731.59453      924.91757      1865.486       11187.647     -3479.0134      17.178197      1.1337453      50871.989    
