LAMMPS data file via write_data, version 22 Dec 2022, timestep = 300000

5008 atoms
9 atom types
5309 bonds
16 bond types
9588 angles
31 angle types
13632 dihedrals
46 dihedral types
4896 impropers
27 improper types

5.937180183427138 44.48178216656635 xlo xhi
5.937180183427138 44.48178216656635 ylo yhi
5.937180183427138 44.48178216656635 zlo zhi

Masses

1 12.01115
2 12.01115
3 12.01115
4 12.01115
5 1.00797
6 1.00797
7 15.9994
8 15.9994
9 15.9994

Pair Coeffs # lj/class2/coul/long

1 0.054 4.01
2 0.054 4.01
3 0.054 4.01
4 0.064 4.01
5 0.02 2.995
6 0.02 2.995
7 0.24 3.535
8 0.24 3.535
9 0.24 3.535

Bond Coeffs # class2

1 1.53 299.67 -501.77 679.81
2 1.53 299.67 -501.77 679.81
3 1.53 299.67 -501.77 679.81
4 1.501 321.902 -521.821 572.163
5 1.101 345 -691.89 844.6
6 1.42 400.395 -835.195 1313.01
7 1.42 400.395 -835.195 1313.01
8 1.42 400.395 -835.195 1313.01
9 1.101 345 -691.89 844.6
10 1.42 400.395 -835.195 1313.01
11 1.101 345 -691.89 844.6
12 1.42 400.395 -835.195 1313.01
13 1.417 470.836 -627.618 1327.63
14 1.0982 372.825 -803.453 894.317
15 1.3768 428.88 -738.235 1114.97
16 0.96 493.848 0 0

Angle Coeffs # class2

1 112.67 39.516 -7.443 -9.5583
2 108.4 43.9594 -8.3924 -9.3379
3 110.77 41.453 -10.604 5.129
4 111.27 54.5381 -8.3642 -13.0838
5 112.67 39.516 -7.443 -9.5583
6 110.77 41.453 -10.604 5.129
7 111.27 54.5381 -8.3642 -13.0838
8 112.67 39.516 -7.443 -9.5583
9 110.77 41.453 -10.604 5.129
10 111.27 54.5381 -8.3642 -13.0838
11 120.05 44.7148 -22.7352 0
12 104.5 35.7454 -10.0067 -6.2729
13 104.5 35.7454 -10.0067 -6.2729
14 102.969 38.9739 -6.2595 -8.171
15 109 58.5 0 0
16 110.77 41.453 -10.604 5.129
17 111.27 54.5381 -8.3642 -13.0838
18 111.27 54.5381 -8.3642 -13.0838
19 110.77 41.453 -10.604 5.129
20 111.27 54.5381 -8.3642 -13.0838
21 111.27 54.5381 -8.3642 -13.0838
22 111 44.3234 -9.4454 0
23 118.9 61.0226 -34.9931 0
24 117.94 35.1558 -12.4682 0
25 123.42 73.6781 -21.6787 0
26 107.66 39.641 -12.921 -2.4318
27 108.728 58.5446 -10.8088 -12.4006
28 108.728 58.5446 -10.8088 -12.4006
29 108.728 58.5446 -10.8088 -12.4006
30 108.728 58.5446 -10.8088 -12.4006
31 108.728 58.5446 -10.8088 -12.4006

BondBond Coeffs

1 0 1.53 1.53
2 0 1.53 1.501
3 3.3872 1.53 1.101
4 11.4318 1.53 1.42
5 0 1.53 1.53
6 3.3872 1.53 1.101
7 11.4318 1.53 1.42
8 0 1.53 1.53
9 3.3872 1.53 1.101
10 11.4318 1.53 1.42
11 12.0676 1.501 1.417
12 -7.1131 1.42 1.42
13 -7.1131 1.42 1.42
14 0 1.42 1.3768
15 0 1.42 0.96
16 3.3872 1.53 1.101
17 11.4318 1.53 1.42
18 11.4318 1.53 1.42
19 3.3872 1.53 1.101
20 11.4318 1.53 1.42
21 11.4318 1.53 1.42
22 0 1.501 1.501
23 68.2856 1.417 1.417
24 1.0795 1.417 1.0982
25 48.4754 1.417 1.3768
26 5.3316 1.101 1.101
27 23.1979 1.101 1.42
28 23.1979 1.101 1.42
29 23.1979 1.101 1.42
30 23.1979 1.101 1.42
31 23.1979 1.101 1.42

BondAngle Coeffs

1 8.016 8.016 1.53 1.53
2 0 0 1.53 1.501
3 20.754 11.421 1.53 1.101
4 2.6868 20.4033 1.53 1.42
5 8.016 8.016 1.53 1.53
6 20.754 11.421 1.53 1.101
7 2.6868 20.4033 1.53 1.42
8 8.016 8.016 1.53 1.53
9 20.754 11.421 1.53 1.101
10 2.6868 20.4033 1.53 1.42
11 47.0579 31.0771 1.501 1.417
12 -2.8112 -2.8112 1.42 1.42
13 -2.8112 -2.8112 1.42 1.42
14 0 0 1.42 1.3768
15 0 0 1.42 0.96
16 11.421 20.754 1.53 1.101
17 20.4033 2.6868 1.53 1.42
18 2.6868 20.4033 1.53 1.42
19 11.421 20.754 1.53 1.101
20 2.6868 20.4033 1.53 1.42
21 20.4033 2.6868 1.53 1.42
22 0 0 1.501 1.501
23 28.8708 28.8708 1.417 1.417
24 24.2183 20.0033 1.417 1.0982
25 58.479 107.681 1.417 1.3768
26 18.103 18.103 1.101 1.101
27 4.6189 55.327 1.101 1.42
28 4.6189 55.327 1.101 1.42
29 4.6189 55.327 1.101 1.42
30 4.6189 55.327 1.101 1.42
31 4.6189 55.327 1.101 1.42

Dihedral Coeffs # class2

1 0 0 0.0316 0 -0.1681 0
2 0.7137 0 0.266 0 -0.2545 0
3 -0.2802 0 -0.0678 0 -0.0122 0
4 -0.5203 0 -0.3028 0 -0.345 0
5 0 0 0 0 0.13 180
6 0 0 0.0316 0 -0.1681 0
7 0.7137 0 0.266 0 -0.2545 0
8 0.7137 0 0.266 0 -0.2545 0
9 -0.5203 0 -0.3028 0 -0.345 0
10 0 0 0.0316 0 -0.1681 0
11 0.7137 0 0.266 0 -0.2545 0
12 0.7137 0 0.266 0 -0.2545 0
13 -0.5203 0 -0.3028 0 -0.345 0
14 0 0 4.4072 0 0 0
15 0 0 1.559 0 0 0
16 0.5302 0 0 0 -0.3966 0
17 0.5302 0 0 0 -0.3966 0
18 0 0 1.5 0 0 0
19 -0.5203 0 -0.3028 0 -0.345 0
20 0 0 0 0 0.13 180
21 0 0 0 0 0.13 180
22 0.5302 0 0 0 -0.3966 0
23 0 0 0 0 0.13 180
24 0.5302 0 0 0 -0.3966 0
25 -0.0228 0 0.028 0 -0.1863 0
26 -0.2802 0 -0.0678 0 -0.0122 0
27 8.3667 0 1.1932 0 0 0
28 0 0 3.9661 0 0 0
29 0 0 4.8498 0 0 0
30 0.9513 0 0.1155 0 0.072 0
31 0 0 0 0 0.13 180
32 -0.1432 0 0.0617 0 -0.1083 0
33 -0.1435 0 0.253 0 -0.0905 0
34 -0.1432 0 0.0617 0 -0.1083 0
35 -0.1435 0 0.253 0 -0.0905 0
36 -0.1432 0 0.0617 0 -0.1083 0
37 -0.1435 0 0.253 0 -0.0905 0
38 -0.1435 0 0.253 0 -0.0905 0
39 -0.1435 0 0.253 0 -0.0905 0
40 -0.1435 0 0.253 0 -0.0905 0
41 -0.1435 0 0.253 0 -0.0905 0
42 0 0 1.8769 0 0 0
43 0 0 1.7234 0 0 0
44 -0.182 0 -0.1084 0 -0.7047 0
45 -0.182 0 -0.1084 0 -0.7047 0
46 -0.182 0 -0.1084 0 -0.7047 0

AngleAngleTorsion Coeffs

1 -16.164 112.67 110.77
2 -29.042 112.67 111.27
3 0 108.4 120.05
4 -19.0059 111.27 104.5
5 0 111.27 102.969
6 -16.164 112.67 110.77
7 -29.042 112.67 111.27
8 -29.042 112.67 111.27
9 -19.0059 111.27 104.5
10 -16.164 112.67 110.77
11 -29.042 112.67 111.27
12 -29.042 112.67 111.27
13 -19.0059 111.27 104.5
14 -14.4097 120.05 118.9
15 4.4444 120.05 117.94
16 -16.4438 104.5 108.728
17 -16.4438 104.5 108.728
18 0 102.969 123.42
19 -19.0059 111.27 104.5
20 0 111.27 102.969
21 0 111.27 109
22 -16.4438 104.5 108.728
23 0 111.27 102.969
24 -16.4438 104.5 108.728
25 0 108.4 110.77
26 0 111 120.05
27 0 118.9 118.9
28 -4.8141 118.9 117.94
29 -21.0247 118.9 123.42
30 0 102.969 108.728
31 0 109 108.728
32 -12.564 110.77 110.77
33 -20.2006 110.77 111.27
34 -12.564 110.77 110.77
35 -20.2006 110.77 111.27
36 -12.564 110.77 110.77
37 -20.2006 110.77 111.27
38 -20.2006 110.77 111.27
39 -20.2006 110.77 111.27
40 -20.2006 110.77 111.27
41 -20.2006 110.77 111.27
42 0.3598 117.94 117.94
43 4.2296 117.94 123.42
44 -14.0484 111.27 111.27
45 -14.0484 111.27 111.27
46 -14.0484 111.27 111.27

EndBondTorsion Coeffs

1 0.2486 0.2422 -0.0925 0.0814 0.0591 0.2219 1.53 1.101
2 -0.319 0.4411 -0.7174 1.1538 0.8409 -0.9138 1.53 1.42
3 0 0 0 0 0 0 1.53 1.417
4 -0.2456 1.0517 -0.7795 0.4741 1.2635 0.5576 1.53 1.42
5 0 0 0 0 0 0 1.53 1.3768
6 0.2486 0.2422 -0.0925 0.0814 0.0591 0.2219 1.53 1.101
7 -0.319 0.4411 -0.7174 1.1538 0.8409 -0.9138 1.53 1.42
8 -0.319 0.4411 -0.7174 1.1538 0.8409 -0.9138 1.53 1.42
9 0.4741 1.2635 0.5576 -0.2456 1.0517 -0.7795 1.53 1.42
10 0.2486 0.2422 -0.0925 0.0814 0.0591 0.2219 1.53 1.101
11 -0.319 0.4411 -0.7174 1.1538 0.8409 -0.9138 1.53 1.42
12 -0.319 0.4411 -0.7174 1.1538 0.8409 -0.9138 1.53 1.42
13 -0.2456 1.0517 -0.7795 0.4741 1.2635 0.5576 1.53 1.42
14 0 0.2421 0 0 -0.6918 0 1.501 1.417
15 0 -1.797 0 0 -0.4879 0 1.501 1.0982
16 -0.162 0.1564 -1.1408 -0.6054 1.3339 0.9648 1.42 1.101
17 -0.162 0.1564 -1.1408 -0.6054 1.3339 0.9648 1.42 1.101
18 0 0 0 0 0 0 1.42 1.417
19 -0.2456 1.0517 -0.7795 0.4741 1.2635 0.5576 1.53 1.42
20 0 0 0 0 0 0 1.53 1.3768
21 0 0 0 0 0 0 1.53 0.96
22 -0.6054 1.3339 0.9648 -0.162 0.1564 -1.1408 1.42 1.101
23 0 0 0 0 0 0 1.53 1.3768
24 -0.6054 1.3339 0.9648 -0.162 0.1564 -1.1408 1.42 1.101
25 0 0 0 0 0 0 1.501 1.101
26 0 0 0 0 0 0 1.501 1.417
27 -0.1185 6.3204 0 -0.1185 6.3204 0 1.417 1.417
28 0 -0.4669 0 0 -6.8958 0 1.417 1.0982
29 0 0.2655 0 0 4.8905 0 1.417 1.3768
30 0 0 0 0 0 0 1.3768 1.101
31 0 0 0 0 0 0 0.96 1.101
32 0.213 0.312 0.0777 0.213 0.312 0.0777 1.101 1.101
33 0.9681 0.9551 0.0436 0.5903 0.6669 0.8584 1.101 1.42
34 0.213 0.312 0.0777 0.213 0.312 0.0777 1.101 1.101
35 0.9681 0.9551 0.0436 0.5903 0.6669 0.8584 1.101 1.42
36 0.213 0.312 0.0777 0.213 0.312 0.0777 1.101 1.101
37 0.9681 0.9551 0.0436 0.5903 0.6669 0.8584 1.101 1.42
38 0.9681 0.9551 0.0436 0.5903 0.6669 0.8584 1.101 1.42
39 0.9681 0.9551 0.0436 0.5903 0.6669 0.8584 1.101 1.42
40 0.9681 0.9551 0.0436 0.5903 0.6669 0.8584 1.101 1.42
41 0.9681 0.9551 0.0436 0.5903 0.6669 0.8584 1.101 1.42
42 0 -0.689 0 0 -0.689 0 1.0982 1.0982
43 0 -1.5867 0 0 4.2641 0 1.0982 1.3768
44 1.0165 0.7553 -0.4609 1.0165 0.7553 -0.4609 1.42 1.42
45 1.0165 0.7553 -0.4609 1.0165 0.7553 -0.4609 1.42 1.42
46 1.0165 0.7553 -0.4609 1.0165 0.7553 -0.4609 1.42 1.42

MiddleBondTorsion Coeffs

1 -14.879 -3.6581 -0.3138 1.53
2 -21.8842 -7.6764 -0.6868 1.53
3 0 0 0 1.501
4 -5.9288 -2.7007 -0.3175 1.42
5 0 0 0 1.42
6 -14.879 -3.6581 -0.3138 1.53
7 -21.8842 -7.6764 -0.6868 1.53
8 -21.8842 -7.6764 -0.6868 1.53
9 -5.9288 -2.7007 -0.3175 1.42
10 -14.879 -3.6581 -0.3138 1.53
11 -21.8842 -7.6764 -0.6868 1.53
12 -21.8842 -7.6764 -0.6868 1.53
13 -5.9288 -2.7007 -0.3175 1.42
14 0 9.1792 0 1.417
15 0 3.9421 0 1.417
16 -6.8007 -4.6546 -1.4101 1.42
17 -6.8007 -4.6546 -1.4101 1.42
18 0 0 0 1.3768
19 -5.9288 -2.7007 -0.3175 1.42
20 0 0 0 1.42
21 0 0 0 1.42
22 -6.8007 -4.6546 -1.4101 1.42
23 0 0 0 1.42
24 -6.8007 -4.6546 -1.4101 1.42
25 0 0 0 1.53
26 0 0 0 1.501
27 27.5989 -2.312 0 1.417
28 0 -1.1521 0 1.417
29 0 4.8255 0 1.417
30 0 0 0 1.42
31 0 0 0 1.42
32 -14.261 -0.5322 -0.4864 1.53
33 -16.7975 -1.2296 -0.275 1.53
34 -14.261 -0.5322 -0.4864 1.53
35 -16.7975 -1.2296 -0.275 1.53
36 -14.261 -0.5322 -0.4864 1.53
37 -16.7975 -1.2296 -0.275 1.53
38 -16.7975 -1.2296 -0.275 1.53
39 -16.7975 -1.2296 -0.275 1.53
40 -16.7975 -1.2296 -0.275 1.53
41 -16.7975 -1.2296 -0.275 1.53
42 0 4.8228 0 1.417
43 0 5.5432 0 1.417
44 -17.2585 -3.6157 -0.8364 1.53
45 -17.2585 -3.6157 -0.8364 1.53
46 -17.2585 -3.6157 -0.8364 1.53

BondBond13 Coeffs

1 0 1.53 1.101
2 0 1.53 1.42
3 0 1.53 1.417
4 0 1.53 1.42
5 0 1.53 1.3768
6 0 1.53 1.101
7 0 1.53 1.42
8 0 1.53 1.42
9 0 1.53 1.42
10 0 1.53 1.101
11 0 1.53 1.42
12 0 1.53 1.42
13 0 1.53 1.42
14 2.5085 1.501 1.417
15 0.8743 1.501 1.0982
16 0 1.42 1.101
17 0 1.42 1.101
18 0 1.42 1.417
19 0 1.53 1.42
20 0 1.53 1.3768
21 0 1.53 0.96
22 0 1.42 1.101
23 0 1.53 1.3768
24 0 1.42 1.101
25 0 1.501 1.101
26 0 1.501 1.417
27 53 1.417 1.417
28 -6.2741 1.417 1.0982
29 -2.2436 1.417 1.3768
30 0 1.3768 1.101
31 0 0.96 1.101
32 0 1.101 1.101
33 0 1.101 1.42
34 0 1.101 1.101
35 0 1.101 1.42
36 0 1.101 1.101
37 0 1.101 1.42
38 0 1.101 1.42
39 0 1.101 1.42
40 0 1.101 1.42
41 0 1.101 1.42
42 -1.7077 1.0982 1.0982
43 2.0517 1.0982 1.3768
44 0 1.42 1.42
45 0 1.42 1.42
46 0 1.42 1.42

AngleTorsion Coeffs

1 -0.2454 0 -0.1136 0.3113 0.4516 -0.1988 112.67 110.77
2 0.5623 -0.3041 -0.4015 0.9672 -0.7566 -1.2331 112.67 111.27
3 0 0 0 0 0 0 108.4 120.05
4 -2.7466 1.4877 -0.8955 0.5676 0.945 0.0703 111.27 104.5
5 0 0 0 0 0 0 111.27 102.969
6 -0.2454 0 -0.1136 0.3113 0.4516 -0.1988 112.67 110.77
7 0.5623 -0.3041 -0.4015 0.9672 -0.7566 -1.2331 112.67 111.27
8 0.5623 -0.3041 -0.4015 0.9672 -0.7566 -1.2331 112.67 111.27
9 0.5676 0.945 0.0703 -2.7466 1.4877 -0.8955 111.27 104.5
10 -0.2454 0 -0.1136 0.3113 0.4516 -0.1988 112.67 110.77
11 0.5623 -0.3041 -0.4015 0.9672 -0.7566 -1.2331 112.67 111.27
12 0.5623 -0.3041 -0.4015 0.9672 -0.7566 -1.2331 112.67 111.27
13 -2.7466 1.4877 -0.8955 0.5676 0.945 0.0703 111.27 104.5
14 0 -4.4683 0 0 3.8987 0 120.05 118.9
15 0 -0.1242 0 0 3.4601 0 120.05 117.94
16 -0.7777 0.434 -0.6653 -1.8234 1.6393 0.5144 104.5 108.728
17 -0.7777 0.434 -0.6653 -1.8234 1.6393 0.5144 104.5 108.728
18 0 0 0 0 0 0 102.969 123.42
19 -2.7466 1.4877 -0.8955 0.5676 0.945 0.0703 111.27 104.5
20 0 0 0 0 0 0 111.27 102.969
21 0 0 0 0 0 0 111.27 109
22 -1.8234 1.6393 0.5144 -0.7777 0.434 -0.6653 104.5 108.728
23 0 0 0 0 0 0 111.27 102.969
24 -1.8234 1.6393 0.5144 -0.7777 0.434 -0.6653 104.5 108.728
25 0 0 0 0 0 0 108.4 110.77
26 0 0 0 0 0 0 111 120.05
27 1.9767 1.0239 0 1.9767 1.0239 0 118.9 118.9
28 0 2.7147 0 0 2.5014 0 118.9 117.94
29 0 10.0155 0 0 1.7404 0 118.9 123.42
30 0 0 0 0 0 0 102.969 108.728
31 0 0 0 0 0 0 109 108.728
32 -0.8085 0.5569 -0.2466 -0.8085 0.5569 -0.2466 110.77 110.77
33 2.3668 2.492 -1.0122 -0.1892 0.4918 0.7273 110.77 111.27
34 -0.8085 0.5569 -0.2466 -0.8085 0.5569 -0.2466 110.77 110.77
35 2.3668 2.492 -1.0122 -0.1892 0.4918 0.7273 110.77 111.27
36 -0.8085 0.5569 -0.2466 -0.8085 0.5569 -0.2466 110.77 110.77
37 2.3668 2.492 -1.0122 -0.1892 0.4918 0.7273 110.77 111.27
38 2.3668 2.492 -1.0122 -0.1892 0.4918 0.7273 110.77 111.27
39 2.3668 2.492 -1.0122 -0.1892 0.4918 0.7273 110.77 111.27
40 2.3668 2.492 -1.0122 -0.1892 0.4918 0.7273 110.77 111.27
41 2.3668 2.492 -1.0122 -0.1892 0.4918 0.7273 110.77 111.27
42 0 2.4501 0 0 2.4501 0 117.94 117.94
43 0 1.8729 0 0 2.5706 0 117.94 123.42
44 0.5511 0.9737 -0.6673 0.5511 0.9737 -0.6673 111.27 111.27
45 0.5511 0.9737 -0.6673 0.5511 0.9737 -0.6673 111.27 111.27
46 0.5511 0.9737 -0.6673 0.5511 0.9737 -0.6673 111.27 111.27

Improper Coeffs # class2

1 0 0
2 0 0
3 0 0
4 0 0
5 0 0
6 0 0
7 0 0
8 0 0
9 0 0
10 0 0
11 0 0
12 0 0
13 0 0
14 0 0
15 0 0
16 0 0
17 0 0
18 0 0
19 0 0
20 0 0
21 0 0
22 0 0
23 0 0
24 0 0
25 7.8153 0
26 4.8912 0
27 13.0421 0

AngleAngle Coeffs

1 0 0 0 112.67 108.4 108.4
2 -1.3199 -1.3199 0.1184 112.67 110.77 110.77
3 0 0 0 108.4 108.4 111
4 0.2738 -0.4825 0.2738 110.77 110.77 107.66
5 3.9177 2.5926 0.1689 110.77 111.27 108.728
6 0.1689 2.5926 3.9177 111.27 110.77 108.728
7 0 -0.4825 0 110.77 110.77 107.66
8 0 2.5926 0 110.77 111.27 108.728
9 0 2.5926 0 111.27 110.77 108.728
10 0 2.5926 3.9177 111.27 110.77 108.728
11 0 -0.4825 0 110.77 110.77 107.66
12 3.9177 2.5926 0 110.77 111.27 108.728
13 0 2.5926 0 110.77 111.27 108.728
14 -0.3157 -0.3157 -0.3157 107.66 107.66 107.66
15 2.4259 2.4259 2.1283 107.66 108.728 108.728
16 2.4259 2.4259 2.1283 107.66 108.728 108.728
17 2.4259 2.4259 2.1283 107.66 108.728 108.728
18 -1.3199 -1.3199 0.1184 112.67 110.77 110.77
19 -0.833 -0.833 -3.5744 112.67 111.27 111.27
20 0.1689 2.5926 3.9177 111.27 110.77 108.728
21 -1.3199 -1.3199 0.1184 112.67 110.77 110.77
22 -0.833 -0.833 -3.5744 112.67 111.27 111.27
23 3.9177 2.5926 0.1689 110.77 111.27 108.728
24 0.1689 2.5926 3.9177 111.27 110.77 108.728
25 0 0 0 120.05 120.05 118.9
26 0 0 0 118.9 117.94 117.94
27 0 0 0 118.9 123.42 123.42

Atoms # full

3864 1 8 -0.266 10.40435913595146 11.525268824842993 15.076633601191597 -1 1 -1
2270 1 8 -0.1595 11.286279541207906 9.211844970426085 13.178995542322514 -1 1 -1
2271 1 1 0.027 11.395022989054752 10.635526677694376 13.027622227635863 -1 1 -1
2274 1 2 0.08 10.35928811090222 11.517520918739915 13.638666680757982 -1 1 -1
2272 1 6 0.053 11.368422389432364 10.778084162470417 11.958527159214626 -1 1 -1
2273 1 6 0.053 12.331018055945098 11.026785497394581 13.384909456236846 -1 1 -1
923 1 6 0.053 9.451112118530393 11.178273299328065 13.215085292954662 -1 1 -1
2269 1 4 0.0265 12.01430667559311 8.201323682686523 12.602709383490687 -1 1 -1
2277 1 1 0.027 10.464704582818836 13.004949013149535 13.26117631411351 -1 1 -1
885 1 6 0.053 15.492990453757306 17.326330652863906 8.057542839177685 -1 1 -1
2278 1 6 0.053 11.229203088525825 13.578093594493222 13.875916732900444 -1 1 -1
2279 1 6 0.053 9.534134177487083 13.543741814852554 13.412401124493053 -1 1 -1
3867 1 6 0.053 8.563509785206326 10.899726830017315 15.511159383877581 -1 1 -1
2276 1 8 -0.266 10.827595221706687 13.239091790847716 11.88870825601187 -1 1 -1
1787 1 1 0.027 6.7603023411409175 8.252103559770266 8.630687518991333 -1 1 -1
1786 1 8 -0.266 7.276375487102464 7.018371512853024 8.369200021560543 -1 1 -1
1784 1 2 0.08 7.220907275477176 9.095977185650208 7.449970727945397 -1 1 -1
4041 1 1 0.027 8.465896350798715 11.11441253394587 8.212502730237642 -1 1 -1
2004 1 6 0.053 21.448892061934707 18.434303323395145 10.7645829639735 -2 1 -1
4043 1 6 0.053 8.62054743461134 10.844180082827794 9.267234257454971 -1 1 -1
4983 1 9 -0.5571 9.143848530701545 18.570787075430772 11.731482164992766 -1 1 -1
2912 1 6 0.053 8.309647282817426 8.844836102065992 7.333179512176445 -1 1 -1
1789 1 6 0.053 7.287932844195844 8.733601222841118 9.502769700437067 -1 1 -1
4042 1 6 0.053 9.359984045282038 10.946206860279947 7.64657922987913 -1 1 -1
1752 5 1 0.027 10.816572711077667 6.924675469304155 6.201896208672695 -1 1 -1
4040 1 8 -0.266 7.275982846290251 10.509227094257342 7.600007509365149 -1 1 -1
2268 1 6 0.1268 12.040463845676367 9.08964407852713 10.61858413634511 -1 1 -1
2267 1 4 -0.1268 12.42059922536862 8.245131528690145 11.222635495076144 -1 1 -1
1762 5 6 0.1268 11.946277292382469 8.684795715940828 8.165867106272465 -1 1 -1
652 1 4 0.0265 22.238088354476016 14.073914949917418 10.238691721164223 -2 1 -1
2281 1 6 0.1268 12.32209366763659 7.182275250935305 14.474944536837684 -1 1 -1
4038 1 2 0.08 8.518251157058947 12.724852487174271 8.202766914207135 -1 1 -1
1785 1 6 0.053 7.497059228855318 13.01034399395514 8.461019711635322 -1 1 -1
2280 1 4 -0.1268 12.50686320223398 7.0364656474612355 13.303992264080913 -1 1 -1
3531 1 6 0.053 6.164115787759838 11.494069585926063 11.310377609070324 -1 1 -1
3560 1 6 0.1268 6.696859018737935 11.164494230610194 13.829805487238074 -1 1 -1
651 1 6 0.1268 23.733386614200032 15.601409873148285 10.886584732557347 -2 1 -1
3537 1 6 0.053 6.716142136604161 9.727173888086476 12.347510498162173 -1 1 -1
4036 1 6 0.053 9.24921424654039 12.39427753327265 6.32242516485262 -1 1 -1
1761 5 4 -0.1268 12.450350887074084 9.217630983548183 7.338413893560705 -1 1 -1
2265 1 4 -0.1268 13.386129719204163 7.338672830396679 10.77771623987963 -1 1 -1
2011 1 6 0.053 15.11033970308959 8.836838481605804 13.749027714385132 -1 1 -1
2019 1 4 0 17.885791665429675 9.629911492484037 11.723937979398782 -1 1 -1
2014 1 1 0 17.06779907147797 9.724423483234897 12.999743637525643 -1 1 -1
2037 1 4 -0.1268 17.850457328824113 10.69817895703345 10.78024122827457 -1 1 -1
2010 1 1 -0.159 15.693204983910556 8.997013040037064 12.747906923466086 -1 1 -1
2013 1 6 0.053 15.925692732541924 8.025483344318909 12.532552072906887 -1 1 -1
2015 1 1 -0.159 17.7225097850229 8.848638402264921 14.128996468516428 -1 1 -1
2017 1 6 0.053 17.850301812752093 7.8531677299572245 13.725801871253594 -1 1 -1
2016 1 6 0.053 18.7851313315061 9.10295170645698 14.408668670119152 -1 1 -1
2020 1 4 -0.1268 18.6404805040533 8.534473729161551 11.34021773793583 -1 1 -1
2021 1 6 0.1268 18.42929804257016 7.522530066419617 11.81816570364192 -1 1 -1
2266 1 6 0.1268 13.715454637445864 7.466794181047476 9.70503967422595 -1 1 -1
2035 1 4 -0.1268 18.79141301859523 10.776933542748107 9.712187840405916 -1 1 -1
2027 1 6 0.053 19.0737546418016 8.231469671680138 7.395009685616164 -1 1 -1
2569 1 6 0.053 18.4950654683174 10.595387159358719 6.863760469084733 -2 1 0
1763 5 4 -0.1268 13.041410163740313 10.482755018492384 7.671497135622358 -1 1 -1
641 1 6 0.053 22.759257999768437 10.484379177538322 15.130817560523779 -2 1 -1
2058 1 6 0.1268 14.920814248321133 11.093293168163964 13.75262159143892 -1 1 -1
2012 1 6 0.053 14.945626073951026 9.286444369734983 12.052434936231887 -1 1 -1
2039 1 4 0 17.072864845779392 11.155101011881367 13.650373076291176 -1 1 -1
2038 1 6 0.1268 17.15350919932483 11.585112655896125 10.85483602516291 -1 1 -1
2057 1 4 -0.1268 15.85525287066982 11.70258175082228 13.95325694754139 -1 1 -1
1764 5 6 0.1268 12.859421790063585 10.776396364813255 8.692500646050906 -1 1 -1
2029 1 2 0.08 19.16073735007013 10.046983934845354 6.266180777922721 -1 1 -1
2018 1 6 0.053 17.152399647553995 8.731166677895157 15.0096036057397 -1 1 -1
648 1 4 -0.1268 23.390221865111133 14.182222092569674 12.439343651153388 -2 1 -1
1745 5 4 0 13.59268393415297 11.244775548267448 6.688724974952924 -1 1 -1
1717 5 6 0.053 15.301718354336833 11.661231394046805 8.324933318713818 -1 1 -1
1781 1 1 0.027 6.811029125495793 8.493169279534989 6.020666058893534 -1 1 -1
884 1 6 0.053 17.12752079757141 18.17325598609185 8.311405802675958 -1 1 -1
667 1 4 0 22.718454708416832 13.370809801307754 15.340381611732067 -2 1 -1
2024 1 4 0.0265 19.528852712613244 9.633770494589967 9.396956158229685 -1 1 -1
2036 1 6 0.1268 18.852978747602677 11.78538156233182 9.152896176517713 -1 1 -1
660 1 1 0.027 21.82609788451071 16.86071361608026 6.90252260849648 -2 1 -1
2022 1 4 -0.1268 19.442993744656466 8.5187583764185 10.188763368815206 -1 1 -1
2026 1 1 0.027 19.888501314598 9.04765146718731 7.145095082697489 -1 1 -1
2972 1 6 0.1268 24.506764880800823 6.2031051147020655 9.047743097092907 -2 1 -1
2023 1 6 0.1268 19.922420372115305 7.532262365827938 9.938628570581972 -1 1 -1
2028 1 6 0.053 20.60236478660478 8.56362255655127 6.433114419334084 -1 1 -1
2025 1 8 -0.1595 20.38485360563091 9.719969924469366 8.311866954071741 -1 1 -1
2282 1 4 -0.1268 13.313311444559423 6.0307080029207 12.772016899094869 -1 1 -1
2986 1 4 -0.1268 22.088739803995086 7.6070875740301105 11.832759813995327 -2 1 -1
2987 1 6 0.1268 21.536035731191944 7.998590483852169 12.768008431156657 -2 1 -1
2944 1 6 0.053 24.46346194822624 9.724650347729105 8.351197779329532 -2 1 -1
2988 1 4 -0.1268 23.27637545219374 8.23638249480287 11.50963013602268 -2 1 -1
2970 1 4 0 24.159971641694383 7.854365119988826 10.46155745772282 -2 1 -1
2989 1 6 0.1268 23.500471788562475 9.224579776348127 12.079718678680148 -2 1 -1
2942 1 6 0.053 24.193806041792254 10.473761561795339 9.910644857376116 -2 1 -1
2941 1 1 -0.159 24.90408916655901 9.911136923803706 9.282219241551983 -2 1 -1
3998 1 6 0.1268 22.218026880655916 7.639592088720435 15.273777327752462 -2 1 -1
2971 1 4 -0.1268 23.81907046839217 6.698438804611417 9.79107732472068 -2 1 -1
1593 1 6 0.053 21.105796312886064 12.068045049383699 6.63313591402193 -2 1 -1
639 1 6 0.053 22.391316164918276 10.348981051440044 13.527753226665263 -2 1 -1
2975 1 4 0.0265 21.905897288858135 6.41446559670865 11.19460180459576 -2 1 -1
644 1 6 0.053 24.856509561094697 11.576339769644196 13.334523710039207 -2 1 -1
664 1 6 0.1268 21.02041304175149 12.224321091510602 9.932731322264608 -2 1 -1
643 1 1 -0.159 24.62697628455588 12.047124514201325 14.296777120600668 -2 1 -1
638 1 1 -0.159 22.354242383676887 11.090701858202934 14.37867033146374 -2 1 -1
640 1 6 0.053 21.33242227754164 11.063446180530086 14.763241535463123 -2 1 -1
666 1 6 0.1268 21.17988103423115 11.490688461862039 12.001766045221027 -2 1 -1
645 1 6 0.053 24.921697159670302 11.198779108423516 14.922225551996465 -2 1 -1
903 1 6 0.053 24.80369298243805 18.20245035867461 15.117066259651079 -1 1 -1
668 1 4 -0.1268 22.134611757774195 14.733963910604537 15.313592999443047 -2 1 -1
655 1 6 0.053 20.20601796259941 15.010112089341606 8.33569416493683 -2 1 -1
927 1 6 0.053 8.537283437600742 13.373731292252028 11.077261859040247 -1 1 -1
4039 1 6 0.053 11.187360693691422 14.434011738292176 10.460333035865556 -1 1 -1
4577 1 6 0.053 6.628993310941587 15.709896753987335 9.355080613981269 -1 1 -1
656 1 6 0.053 20.427100574697185 15.644768332481632 9.918545756609905 -2 1 -1
924 1 8 -0.266 9.41601365418592 13.061636701844733 9.209412262713682 -1 1 -1
1750 5 4 0.0265 12.419125077490161 8.759451437894505 6.091672287696683 -1 1 -1
4578 1 6 0.053 6.124256447372507 14.530483996566208 8.08182962343188 -1 1 -1
4033 1 4 0.0265 8.091163166649595 15.306339619097143 6.004798311228383 -1 1 -1
4034 1 8 -0.1595 7.931472918235512 13.913217236864106 6.024347011291126 -1 1 -1
1753 5 6 0.053 10.785169448370187 6.469507615971576 7.171255789329464 -1 1 -1
4028 1 4 0 7.96399869804922 18.140766672951305 6.053366587453122 -1 1 -1
922 1 2 0.08 10.390410233664195 14.392884323362232 11.132820404491328 -1 1 -1
925 1 1 0.027 9.115697703638993 13.99216499969622 10.39323543033005 -1 1 -1
920 1 6 0.053 9.200101532126952 15.611464572653126 12.340771853229999 -1 1 -1
4029 1 4 -0.1268 8.816239633661866 17.42013877388206 6.912442168652876 -1 1 -1
918 1 8 -0.1595 11.249999228552829 16.296959305941936 12.512876715030263 -1 1 -1
919 1 1 0.027 10.146041725156284 15.730260960639612 11.749828191652693 -1 1 -1
921 1 6 0.053 10.033694725723834 16.48731481412372 10.908658729477505 -1 1 -1
926 1 6 0.053 8.528146606023126 14.767514597780657 9.995308537207265 -1 1 -1
4031 1 4 -0.1268 8.872004862188684 16.039968139217002 6.864949955065342 -1 1 -1
4030 1 6 0.1268 9.58521357345657 18.111110749084965 7.41899800818724 -1 1 -1
4032 1 6 0.1268 9.63978080406689 15.817697062213073 7.5899287215862525 -1 1 -1
916 1 6 0.1268 11.72475672553244 16.599030751076295 9.821079266891841 -1 1 -1
1754 5 6 0.053 10.0575355025166 7.849640755953692 6.338246665274187 -1 1 -1
4035 1 1 0.027 9.012012155713116 13.282742745923358 6.8050279316088975 -1 1 -1
654 1 1 0.027 20.964966535826875 15.615285452221947 8.993835231171683 -2 1 -1
4037 1 6 0.053 9.904032493373528 13.848593889220075 6.775479490230519 -1 1 -1
2973 1 4 -0.1268 22.76483206549259 5.974282060028202 10.178620153144774 -2 1 -1
4108 1 6 0.053 20.37764781953007 17.599902296426198 8.25766683813265 -2 1 -1
2056 1 6 0.1268 14.711868653583778 13.348122407527448 14.611720073384927 -1 1 -1
2041 1 6 0.1268 19.10840750538629 11.510796773608154 13.365150102231944 -1 1 -1
2040 1 4 -0.1268 18.165585571092954 11.933139989480571 13.726188378260588 -1 1 -1
889 1 6 0.053 17.988278002548096 15.574289603950259 8.979257241747106 -1 1 -1
1720 5 1 0 14.021878552286854 12.731691637995887 7.014577362211988 -1 1 -1
1724 5 6 0.053 11.799159347598533 13.275771063785369 7.532521283269216 -1 1 -1
917 1 4 0.0265 12.499334212239297 16.486850717914436 11.880831699083533 -1 1 -1
890 1 6 0.053 16.318559140774052 15.314940990381784 8.515443842254657 -1 1 -1
915 1 4 -0.1268 12.595368905517837 16.712644921615368 10.503780236679019 -1 1 -1
888 1 1 -0.159 16.836260891740523 15.67698410936664 9.392113055642357 -1 1 -1
929 1 6 0.1268 13.838478628819871 16.354678940118365 13.730603652425842 -1 1 -1
1719 5 6 0.053 15.459273315126806 13.277864575002958 8.649433474702935 -1 1 -1
2045 1 8 -0.1595 16.63681588838937 15.313368835245575 14.638021347612824 -1 1 -1
931 1 6 0.1268 15.819683353812465 16.636546546725505 12.64681921178803 -1 1 -1
1716 5 1 -0.159 14.740710095991194 12.594517149095092 8.313691681457856 -1 1 -1
1718 5 6 0.053 14.032728035744103 12.566526675496387 9.174756351312514 -1 1 -1
928 1 4 -0.1268 13.74495735824659 16.492804459040592 12.606850312796634 -1 1 -1
914 1 6 0.1268 13.833575940619589 16.85606855273401 8.759217526942702 -1 1 -1
913 1 4 -0.1268 13.895845584604995 16.863822531846882 9.90255671091312 -1 1 -1
930 1 4 -0.1268 14.951005743675326 16.62454120022617 11.881823151954064 -1 1 -1
2042 1 4 -0.1268 18.014217339689605 13.266841227003088 14.057010277054086 -1 1 -1
891 1 6 0.053 16.7256114710314 14.867318815530767 10.153504003506878 -1 1 -1
2044 1 4 0.0265 16.764181294298176 13.9585063948266 14.272892185011594 -1 1 -1
912 1 4 0 15.067765142704339 16.865407395481604 10.560993908767777 -1 1 -1
893 1 4 -0.1268 18.414438633928448 16.700126827979922 11.470010173295874 -1 1 -1
894 1 6 0.1268 18.422510069568503 15.689077397058833 11.178683280735338 -1 1 -1
2043 1 6 0.1268 19.039073682444126 13.80024224678958 14.013878615508222 -1 1 -1
895 1 4 -0.1268 19.44201761654515 17.029296133260537 12.317421197322972 -1 1 -1
887 1 1 0 16.475958608042276 17.061986042068675 10.00317841665569 -1 1 -1
892 1 4 0 17.524236814757757 17.620401422986653 10.937597603020224 -1 1 -1
2055 1 4 -0.1268 15.700874624271101 13.035372300108728 14.344689366109284 -1 1 -1
1721 5 1 -0.159 12.63597103790443 13.587581724231068 6.942017903413741 -1 1 -1
1723 5 6 0.053 12.809375992932827 14.703729919687394 7.177047166038852 -1 1 -1
2002 1 8 -0.266 22.33780955562747 17.857897505430753 9.022466457488942 -2 1 -1
663 1 4 -0.1268 21.568732055475003 12.900828257116011 10.600989890840545 -2 1 -1
669 1 6 0.1268 22.046565215069442 15.141600710679132 14.278121166820721 -2 1 -1
4810 1 6 0.053 23.31928141229939 6.88661877730396 6.492871887894566 -2 1 -1
649 1 6 0.1268 24.158102641564906 14.551259194227967 13.207275305295152 -2 1 -1
1756 5 6 0.053 8.943516166024017 5.95623648805902 6.054228617042691 -1 1 -1
662 1 6 0.053 22.802067671354724 16.22433098964401 6.9070049620999985 -2 1 -1
2261 1 6 0.053 16.59997251654488 6.292902269438291 11.322870310865284 -1 1 -1
665 1 4 -0.1268 21.790986094063364 12.455208253636616 11.90340204272108 -2 1 -1
661 1 6 0.053 22.089274231470853 17.857193347336587 6.484678056649064 -2 1 -1
657 1 2 0.08 21.25603422887137 16.98922304297562 8.35974486524278 -2 1 -1
647 1 4 0 22.732633798106928 13.05190306503276 12.781529549162544 -2 1 -1
896 1 6 0.1268 19.9824743741584 16.165395604377338 12.734520084304341 -1 1 -1
650 1 4 -0.1268 23.170573608937328 14.582721945982525 11.170323249090982 -2 1 -1
1727 5 6 0.1268 16.48140894661121 11.584651950296085 6.366831994008054 -1 1 -1
653 1 8 -0.1595 22.20090491186496 14.81461765598272 9.124756691787338 -2 1 -1
642 1 1 0 23.107577215527353 12.419838770532941 14.226268548732499 -2 1 -1
3996 1 6 0.1268 20.206696686187737 7.312706405236124 14.361260605374373 -2 1 -1
900 1 6 0.053 20.014079404786155 18.47932184984147 15.438063669119353 -1 1 -1
883 1 1 -0.159 16.13930754518142 17.91312388854974 8.768054681272929 -1 1 -1
3995 1 4 -0.1268 20.57378257024039 6.407625296464195 14.955942557669742 -2 1 -1
2053 1 6 0.053 17.4591110757734 17.9636197517019 15.458417367253398 -1 1 -1
2264 1 4 0 13.725555801764024 6.124262766315416 11.412260355031325 -1 1 -1
897 1 4 0.0265 19.683974913115527 18.373087277407816 12.634369845035627 -1 1 -1
3997 1 4 -0.1268 21.82322905219697 6.645034007114611 15.426037533215862 -2 1 -1
4353 1 6 0.053 7.3005951697468685 6.3946492823814225 10.38566541349374 -1 1 -1
659 1 8 -0.266 20.78752129454015 16.34055316437345 6.117234635683818 -2 1 -1
4984 1 5 0.4241 8.381184197170667 18.438803855176104 11.1236880355005 -1 1 -1
1782 1 6 0.053 6.363268414908591 7.501522306301089 6.02843509926772 -1 1 -1
3562 1 6 0.1268 6.286458115507303 12.94755668507943 15.485203995541227 -1 1 -1
1722 5 6 0.053 12.360026835899216 13.694003233504002 5.956841664061805 -1 1 -1
1725 5 4 0 14.987449356326616 13.209229699470955 5.956775671095286 -1 1 -1
2313 1 4 0 10.753662035536706 10.679299334908212 21.85230202526416 -1 1 -1
1053 1 6 0.053 8.346836465417688 10.182052491777018 19.772746469508974 -1 1 -1
2312 1 6 0.053 8.925696664189063 10.064617956389537 23.82709405768531 -1 1 -1
2314 1 4 -0.1268 10.940100664690842 10.688083511698037 20.427593006040297 -1 1 -1
2315 1 6 0.1268 10.23477537727967 11.154852565617482 19.69296785913435 -1 1 -1
2310 1 6 0.053 8.193307873951866 10.005607330592092 22.254585749255558 -1 1 -1