LAMMPS (22 Dec 2022)
WARNING: Using I/O redirection is unreliable with parallel runs. Better to use the -in switch to read input files. (../lammps.cpp:531)
Reading data file ...
  orthogonal box = (0 0 0) to (47.598358 47.598358 47.598358)
  1 by 2 by 3 MPI processor grid
  reading atoms ...
  4972 atoms
  scanning bonds ...
  5 = max bonds/atom
  scanning angles ...
  18 = max angles/atom
  scanning dihedrals ...
  26 = max dihedrals/atom
  scanning impropers ...
  16 = max impropers/atom
  reading bonds ...
  5231 bonds
  reading angles ...
  10620 angles
  reading dihedrals ...
  16233 dihedrals
  reading impropers ...
  6840 impropers
Finding 1-2 1-3 1-4 neighbors ...
  special bond factors lj:    0        0        0       
  special bond factors coul:  0        0        0       
     4 = max # of 1-2 neighbors
     9 = max # of 1-3 neighbors
    18 = max # of 1-4 neighbors
    34 = max # of special neighbors
  special bonds CPU = 0.001 seconds
  read_data CPU = 0.095 seconds
Generated 28 of 28 mixed pair_coeff terms from sixthpower/geometric mixing rule
Neighbor list info ...
  update: every = 1 steps, delay = 0 steps, check = yes
  max neighbors/atom: 2000, page size: 100000
  master list distance cutoff = 12
  ghost atom cutoff = 12
  binsize = 6, bins = 8 8 8
  1 neighbor lists, perpetual/occasional/extra = 1 0 0
  (1) pair lj/class2/coul/cut, perpetual
      attributes: half, newton on
      pair build: half/bin/newton
      stencil: half/bin/3d
      bin: standard
Setting up cg style minimization ...
  Unit style    : real
  Current step  : 0
Per MPI rank memory allocation (min/avg/max) = 28.4 | 28.43 | 28.45 Mbytes
   Step          Temp          E_pair         E_mol          TotEng         Press     
         0   0             -907.99548      20556.055      19648.06      -2630.8351    
        41   0             -1311.8501      16402.75       15090.9        1741.1946    
Loop time of 1.00692 on 6 procs for 41 steps with 4972 atoms

98.9% CPU use with 6 MPI tasks x no OpenMP threads

Minimization stats:
  Stopping criterion = energy tolerance
  Energy initial, next-to-last, final = 
      19648.0596877763   15090.9656089416   15090.8995266128
  Force two-norm initial, final = 2771.4396 6435.6084
  Force max component initial, final = 884.88462 3880.3803
  Final line search alpha, max atom move = 8.6221006e-08 0.0003345703
  Iterations, force evaluations = 41 139

MPI task timing breakdown:
Section |  min time  |  avg time  |  max time  |%varavg| %total
---------------------------------------------------------------
Pair    | 0.22207    | 0.32311    | 0.38491    |  10.1 | 32.09
Bond    | 0.32177    | 0.39701    | 0.4637     |   7.7 | 39.43
Neigh   | 0          | 0          | 0          |   0.0 |  0.00
Comm    | 0.16316    | 0.26979    | 0.44221    |  19.5 | 26.79
Output  | 0          | 0          | 0          |   0.0 |  0.00
Modify  | 0          | 0          | 0          |   0.0 |  0.00
Other   |            | 0.01701    |            |       |  1.69

Nlocal:        828.667 ave         952 max         696 min
Histogram: 2 0 0 1 0 0 0 0 1 2
Nghost:        5348.67 ave        5484 max        5234 min
Histogram: 1 0 1 1 1 0 1 0 0 1
Neighs:         144420 ave      177896 max      101228 min
Histogram: 1 0 1 0 0 1 0 1 1 1

Total # of neighbors = 866518
Ave neighs/atom = 174.27957
Ave special neighs/atom = 11.989541
Neighbor list builds = 0
Dangerous builds = 0
Generated 28 of 28 mixed pair_coeff terms from sixthpower/geometric mixing rule
Setting up Verlet run ...
  Unit style    : real
  Current step  : 41
  Time step     : 1
Per MPI rank memory allocation (min/avg/max) = 27.27 | 27.3 | 27.32 Mbytes
   Step          Temp          PotEng         E_vdwl         E_coul         E_bond        E_angle        E_dihed        E_impro        Density         Volume    
        41   0              15090.9       -507.23992     -804.6102       379.6825       20602.442     -4489.4846     -89.890451      0.44999999     107839.01    
       100   180.30602      16083.736     -653.57348     -826.0576       1094.8977      21065.62      -4488.2755     -108.87503      0.44999999     107839.01    
       200   269.79507      16881.641     -901.63897     -876.15903      1729.2383      21466.453     -4427.6979     -108.55447      0.44999999     107839.01    
       300   289.65697      17029.342     -937.03356     -879.54485      1852.399       21595.208     -4489.2077     -112.47899      0.44999999     107839.01    
       400   292.55125      17035.112     -994.22828     -946.37048      1958.5689      21587.464     -4448.0587     -122.26387      0.44999999     107839.01    
       500   296.24706      17049.504     -988.86212     -912.68281      1955.3908      21583.652     -4463.5299     -124.46406      0.44999999     107839.01    
       600   298.66351      17017.287     -1024.7994     -957.18019      2007.8549      21629.271     -4519.8362     -118.02274      0.44999999     107839.01    
       700   304.02077      16986.573     -996.03458     -966.71947      2029.1858      21556.628     -4503.9058     -132.58132      0.44999999     107839.01    
       800   305.61467      16980.096     -1042.0752     -904.23281      1993.7616      21602.566     -4557.0887     -112.8344       0.44999999     107839.01    
       900   303.1365       16913.087     -1028.8542     -877.12285      1973.9723      21505.211     -4532.7367     -127.38276      0.44999999     107839.01    
      1000   300.07551      16851.97      -1014.951      -940.95865      1987.2688      21471.475     -4539.6747     -111.18974      0.44999999     107839.01    
      1100   305.24983      16719.624     -1019.0392     -950.3344       1946.771       21400.111     -4533.5035     -124.38015      0.44999999     107839.01    
      1200   299.71272      16677.747     -1006.4226     -949.89675      1888.8136      21460.198     -4591.0979     -123.84759      0.44999999     107839.01    
      1300   301.7944       16816.944     -982.19597     -892.04778      2006.8343      21380.896     -4570.3649     -126.17759      0.44999999     107839.01    
      1400   305.29397      16746.387     -996.45598     -884.01992      1921.1335      21505.962     -4663.3085     -136.92379      0.44999999     107839.01    
      1500   299.45438      16640.251     -989.50632     -941.26404      1959.2544      21444.065     -4705.9791     -126.31863      0.44999999     107839.01    
      1600   299.25825      16738.668     -1036.5862     -864.60104      2007.7371      21464.062     -4709.6224     -122.32135      0.44999999     107839.01    
      1700   299.91944      16699.889     -1017.9764     -927.51685      1929.8165      21454.151     -4612.0602     -126.5251       0.44999999     107839.01    
      1800   298.01681      16598.882     -1008.3052     -945.59695      1955.7173      21450.517     -4725.707      -127.74232      0.44999999     107839.01    
      1900   299.54197      16608.482     -1048.1043     -951.57583      1943.253       21495.504     -4701.9476     -128.64734      0.44999999     107839.01    
      2000   297.36781      16616.747     -1026.6145     -891.11128      1957.8183      21437.399     -4743.5075     -117.23758      0.44999999     107839.01    
      2100   297.76392      16717.579     -1042.862      -887.90795      2010.0857      21459.12      -4695.4282     -125.42837      0.44999999     107839.01    
      2200   300.87828      16588.437     -1046.6854     -956.17634      1995.3553      21484.968     -4762.3577     -126.66709      0.44999999     107839.01    
      2300   300.49471      16454.194     -1037.121      -1055.0157      1946.5933      21441.826     -4719.6971     -122.3913       0.44999999     107839.01    
      2400   300.84181      16561.617     -1025.6824     -1017.3306      2079.5375      21431.304     -4794.7606     -111.45027      0.44999999     107839.01    
      2500   304.05256      16345.028     -1023.0255     -1045.5765      1892.1065      21363.278     -4709.643      -132.11172      0.44999999     107839.01    
      2600   304.34999      16467.842     -1014.9143     -975.33996      1975.333       21320.585     -4716.7535     -121.06841      0.44999999     107839.01    
      2700   298.15849      16512.422     -1023.9989     -1006.8218      1958.0048      21397.856     -4692.3237     -120.29441      0.44999999     107839.01    
      2800   296.54788      16412.831     -1035.3224     -1004.3915      1912.3452      21347.208     -4685.0481     -121.95987      0.44999999     107839.01    
      2900   294.42208      16387.333     -1058.7538     -1055.0094      1899.8759      21464.65      -4741.8857     -121.54471      0.44999999     107839.01    
      3000   302.83653      16364.09      -1048.708      -1013.3314      1954.3544      21367.858     -4771.9611     -124.12212      0.44999999     107839.01    
      3100   301.83821      16338.443     -1055.0241     -1071.0055      1887.7627      21421.181     -4713.9901     -130.48081      0.44999999     107839.01    
      3200   299.36487      16354.29      -1041.2242     -1049.5175      1927.5233      21318.691     -4686.2787     -114.90322      0.44999999     107839.01    
      3300   302.18014      16308.339     -1061.1473     -1021.0771      1955.7933      21275.087     -4723.3033     -117.01366      0.44999999     107839.01    
      3400   301.0797       16401.176     -1025.8717     -992.57542      1919.8282      21360.379     -4732.3076     -128.27598      0.44999999     107839.01    
      3500   300.01441      16301.029     -1062.627      -1027.3731      1977.0791      21305.66      -4767.0601     -124.65013      0.44999999     107839.01    
      3600   291.36013      16341.745     -1054.04       -1029.8983      1924.059       21327.247     -4694.355      -131.2677       0.44999999     107839.01    
      3700   300.10698      16329.577     -1090.8025     -1036.7252      1939.974       21432.797     -4791.3766     -124.28879      0.44999999     107839.01    
      3800   296.06922      16262.339     -1081.762      -1129.2744      2007.4074      21387.046     -4795.8843     -125.1936       0.44999999     107839.01    
      3900   301.92259      16177.475     -1099.0281     -1132.8544      1939.9905      21397.772     -4803.8541     -124.55121      0.44999999     107839.01    
      4000   303.18881      16185.282     -1064.2625     -1112.6961      1923.6543      21328.694     -4768.9663     -121.14101      0.44999999     107839.01    
      4100   299.9091       16331.744     -1072.4746     -992.37555      1935.961       21384.058     -4808.0283     -115.39615      0.44999999     107839.01    
      4200   305.87161      16379.75      -1063.889      -985.19997      1977.8417      21284.385     -4700.6509     -132.73735      0.44999999     107839.01    
      4300   304.7466       16378.27      -1040.9508     -990.65296      1948.0727      21290.805     -4708.4673     -120.53667      0.44999999     107839.01    
      4400   305.53235      16346.213     -1052.4875     -966.54303      1951.8559      21325.984     -4788.7093     -123.88714      0.44999999     107839.01    
      4500   301.60271      16307.755     -1021.6816     -996.47629      1980.3061      21285.628     -4813.5907     -126.43124      0.44999999     107839.01    
      4600   301.45198      16343.133     -1084.6247     -966.03258      1978.4322      21330.515     -4793.6666     -121.49059      0.44999999     107839.01    
      4700   298.98722      16245.436     -1040.7144     -1036.0763      1972.0564      21298.477     -4825.7798     -122.52737      0.44999999     107839.01    
      4800   300.92291      16187.762     -1071.8205     -1006.3899      1924.6894      21237.379     -4771.9509     -124.14554      0.44999999     107839.01    
      4900   293.47287      16333.787     -1049.7699     -992.50238      1988.0514      21279.204     -4769.9641     -121.23226      0.44999999     107839.01    
      5000   297.19186      16114.397     -1045.2556     -1070.7768      1919.1979      21236.696     -4805.0181     -120.44643      0.44999999     107839.01    
      5100   293.70498      16098.139     -1031.035      -1068.5079      1894.7425      21202.116     -4775.9246     -123.25211      0.44999999     107839.01    
      5200   293.62591      16034.468     -1072.9497     -1090.0304      1893.2646      21190.071     -4759.4289     -126.45817      0.44999999     107839.01    
      5300   301.08276      16141.077     -1065.0712     -1128.6228      1962.6668      21370.454     -4873.4109     -124.93933      0.44999999     107839.01    
      5400   300.61451      16319.706     -1092.8406     -1013.0479      1970.6857      21368.006     -4793.1211     -119.97642      0.44999999     107839.01    
      5500   301.67648      16318.563     -1092.488      -980.87871      1993.8429      21285.366     -4764.3969     -122.88271      0.44999999     107839.01    
      5600   307.02823      16314.459     -1061.8819     -976.80047      1933.6492      21395.039     -4854.2983     -121.24868      0.44999999     107839.01    
      5700   307.43449      16286.137     -1042.8631     -986.25791      1945.8064      21344.061     -4853.675      -120.93478      0.44999999     107839.01    
      5800   298.63103      16266.856     -1036.4747     -1029.464       1947.0098      21335.861     -4817.9701     -132.10581      0.44999999     107839.01    
      5900   301.94168      16238.443     -1065.6081     -1057.9838      1968.8611      21354.169     -4834.4188     -126.57657      0.44999999     107839.01    
      6000   306.12101      16291.601     -1102.3416     -1017.9889      1985.8274      21307.52      -4763.9099     -117.50663      0.44999999     107839.01    
      6100   305.73007      16283         -1086.3929     -1020.357       2021.6712      21360.308     -4873.6552     -118.57402      0.44999999     107839.01    
      6200   301.91868      16168.257     -1057.5477     -1036.9099      1890.0993      21343.312     -4858.0382     -112.65866      0.44999999     107839.01    
      6300   300.4775       16207.836     -1088.3133     -1023.6145      1950.6825      21359.658     -4863.6754     -126.90133      0.44999999     107839.01    
      6400   299.99841      16246.026     -1096.4454     -1017.763       1932.28        21300.667     -4753.4669     -119.24556      0.44999999     107839.01    
      6500   303.01073      16166.572     -1068.3322     -1108.3829      1964.416       21318.944     -4819.0177     -121.05496      0.44999999     107839.01    
      6600   307.25131      16182.238     -1087.6462     -1057.8858      1967.5369      21327.982     -4844.9702     -122.77835      0.44999999     107839.01    
      6700   299.22251      16259.968     -1084.3248     -962.80725      1962.7831      21313.268     -4846.5859     -122.36507      0.44999999     107839.01    
      6800   290.65584      16199.468     -1086.2126     -960.19875      1946.7614      21250.963     -4837.6045     -114.24036      0.44999999     107839.01    
      6900   298.25689      16178.37      -1054.3321     -1024.2086      1920.2375      21320.607     -4861.8876     -122.0459       0.44999999     107839.01    
      7000   292.52122      16173.42      -1077.0498     -1053.367       1902.5641      21344.739     -4822.592      -120.87505      0.44999999     107839.01    
      7100   298.21267      16092.484     -1075.879      -1076.3306      1952.3396      21285.034     -4872.816      -119.86435      0.44999999     107839.01    
      7200   297.84982      16117.145     -1108.8051     -1060.773       1975.0597      21248.523     -4818.7369     -118.12293      0.44999999     107839.01    
      7300   297.18091      16098.582     -1093.4029     -1034.565       1932.4439      21310.395     -4898.2471     -118.04122      0.44999999     107839.01    
      7400   297.54166      16242.352     -1089.618      -980.0415       1999.0809      21267.664     -4829.3483     -125.38534      0.44999999     107839.01    
      7500   300.01611      16127.982     -1084.6212     -1053.2262      1994.2703      21268.567     -4867.4893     -129.51874      0.44999999     107839.01    
      7600   302.30107      16064.757     -1077.0794     -1074.7872      1974.0643      21191.989     -4835.4527     -113.97743      0.44999999     107839.01    
      7700   299.35687      16167.104     -1067.3291     -1029.4993      1951.4521      21250.64      -4812.2389     -125.92146      0.44999999     107839.01    
      7800   303.49137      16096.049     -1098.9908     -1114.1513      1968.4875      21297.807     -4833.3304     -123.77291      0.44999999     107839.01    
      7900   305.51086      16149.915     -1092.7601     -1011.4934      2002.8927      21245.415     -4878.3394     -115.8004       0.44999999     107839.01    
      8000   298.74412      16094.588     -1092.8025     -1096.8732      1979.8254      21266.662     -4838.4061     -123.81694      0.44999999     107839.01    
      8100   298.89673      16177.811     -1114.5866     -989.1136       2006.8302      21254.298     -4855.7246     -123.89256      0.44999999     107839.01    
      8200   301.69108      16056.94      -1105.6937     -1064.9366      1935.4537      21264.047     -4844.3435     -127.58652      0.44999999     107839.01    
      8300   299.05662      16134.164     -1098.1323     -1006.417       1986.4088      21209.591     -4829.4043     -127.88246      0.44999999     107839.01    
      8400   305.94351      16153.716     -1087.0694     -1011.2698      1941.4938      21269.964     -4834.1129     -125.29004      0.44999999     107839.01    
      8500   300.52194      16130.341     -1110.0855     -1094.2966      1952.4369      21348.217     -4840.4445     -125.48694      0.44999999     107839.01    
      8600   305.67905      16218.311     -1077.473      -1009.9699      2004.4199      21284.873     -4852.9373     -130.60229      0.44999999     107839.01    
      8700   296.86631      16102.952     -1033.7681     -1048.8852      1958.4684      21246.114     -4888.9197     -130.05733      0.44999999     107839.01    
      8800   299.76448      15924.576     -1102.0636     -1083.8299      1901.432       21271.107     -4931.1899     -130.88024      0.44999999     107839.01    
      8900   300.2011       16055.221     -1112.998      -1022.6694      1936.1408      21268.529     -4882.2935     -131.48825      0.44999999     107839.01    
      9000   302.06885      16116.42      -1111.7883     -1059.8362      1926.3068      21358.367     -4871.6698     -124.9593       0.44999999     107839.01    
      9100   306.82254      15960.461     -1091.513      -1140.239       1985.8678      21187.017     -4851.4563     -129.21584      0.44999999     107839.01    
      9200   298.44293      16079.061     -1057.7286     -1009.1377      1931.9553      21217.743     -4879.8314     -123.94027      0.44999999     107839.01    
      9300   302.09835      16070.784     -1099.3074     -1031.1677      1905.8722      21268.567     -4852.4578     -120.72201      0.44999999     107839.01    
      9400   300.91063      16242.015     -1066.7034     -1016.062       1983.4592      21419.186     -4945.4342     -132.4306       0.44999999     107839.01    
      9500   305.35202      16049.598     -1082.6279     -1059.6661      1922.7841      21292.098     -4900.8881     -122.10201      0.44999999     107839.01    
      9600   304.23318      16043.435     -1086.9163     -1045.0096      1892.6162      21297.57      -4887.4302     -127.3949       0.44999999     107839.01    
      9700   302.44         16053.763     -1074.6552     -1022.2523      1903.2235      21258.888     -4890.291      -121.15028      0.44999999     107839.01    
      9800   300.86883      16059.4       -1096.9559     -1054.3184      1970.6516      21264.667     -4890.6272     -134.01754      0.44999999     107839.01    
      9900   298.46174      16110.819     -1121.1914     -972.32333      1935.2413      21325.462     -4927.8876     -128.48153      0.44999999     107839.01    
     10000   301.36375      16073.87      -1125.5385     -1044.395       1976.7596      21275.72      -4881.5229     -127.15354      0.44999999     107839.01    
     10100   297.54853      16091.06      -1096.7537     -1043.8835      1954.0675      21232.378     -4832.7433     -122.00463      0.44999999     107839.01    
     10200   302.27514      16096.234     -1144.0932     -989.90942      1956.9988      21194.136     -4790.3036     -130.59476      0.44999999     107839.01    
     10300   298.70531      16121.359     -1135.5825     -977.63323      1947.6824      21265.572     -4857.4769     -121.20299      0.44999999     107839.01    
     10400   297.70543      16217.105     -1119.925      -935.96892      1998.0018      21283.128     -4885.489      -122.64211      0.44999999     107839.01    
     10500   295.04025      16106.656     -1108.0846     -1008.8302      1960.0325      21254.782     -4858.6756     -132.56761      0.44999999     107839.01    
     10600   300.78139      16163.063     -1148.5808     -938.36099      2018.4416      21250.955     -4894.5334     -124.8586       0.44999999     107839.01    
     10700   294.19074      16171.931     -1125.0594     -1006.2908      1983.9959      21302.71      -4861.6188     -121.80591      0.44999999     107839.01    
     10800   311.28869      16124.039     -1134.001      -964.4035       1973.872       21231.64      -4869.1734     -113.89536      0.44999999     107839.01    
     10900   304.88214      16118.287     -1135.7343     -984.53497      2070.0902      21202.143     -4901.7447     -131.93235      0.44999999     107839.01    
     11000   301.58445      16080.97      -1162.7744     -976.45454      1966.0979      21207.721     -4827.1593     -126.46031      0.44999999     107839.01    
     11100   305.57317      16083.219     -1119.6327     -1004.9017      1974.2757      21270.366     -4906.6392     -130.24866      0.44999999     107839.01    
     11200   302.75178      15947.24      -1125.3415     -1128.9591      2027.5051      21188.431     -4890.8144     -123.5806       0.44999999     107839.01    
     11300   300.01916      15900.145     -1134.2942     -1101.1832      1938.1547      21191.693     -4868.1757     -126.04936      0.44999999     107839.01    
     11400   302.66896      15954.399     -1162.3757     -1098.1602      1976.0221      21228.537     -4860.2241     -129.4          0.44999999     107839.01    
     11500   299.54881      15904.986     -1123.2629     -1093.2753      1904.5038      21234.129     -4893.1725     -123.93574      0.44999999     107839.01    
     11600   302.56403      15898.297     -1138.0388     -1096.4041      1922.655       21196.58      -4858.1534     -128.34174      0.44999999     107839.01    
     11700   297.36657      15971.207     -1137.5867     -1091.6141      1975.4129      21269.407     -4922.9904     -121.42134      0.44999999     107839.01    
     11800   297.80287      16032.549     -1143.343      -1046.4421      1956.5061      21269.481     -4880.957      -122.6966       0.44999999     107839.01    
     11900   291.82924      15965.902     -1114.4479     -1036.4056      1983.2839      21165.323     -4906.8804     -124.97125      0.44999999     107839.01    
     12000   294.37371      15880.932     -1146.3572     -1102.9259      1929.0277      21194.053     -4863.0461     -129.82033      0.44999999     107839.01    
     12100   298.91132      16029.827     -1164.2968     -1032.0866      1932.4479      21344.275     -4928.4609     -122.05144      0.44999999     107839.01    
     12200   297.01915      16018.89      -1153.6576     -995.86531      1986.6027      21196.97      -4894.4389     -120.72014      0.44999999     107839.01    
     12300   293.04425      15949.95      -1153.2476     -1030.426       1961.0022      21200.7       -4899.1855     -128.89346      0.44999999     107839.01    
     12400   297.15802      15906.462     -1169.8157     -1051.3778      1912.4605      21208.428     -4861.0336     -132.19989      0.44999999     107839.01    
     12500   298.94401      15974.172     -1168.4226     -1029.1897      1951.3916      21198.417     -4862.1179     -115.90597      0.44999999     107839.01    
     12600   306.52001      15985.643     -1154.6783     -992.95756      1946.3768      21185.236     -4865.9549     -132.37871      0.44999999     107839.01    
     12700   294.31995      15907.86      -1168.2322     -1092.9341      1954.2241      21270.654     -4917.2702     -138.58208      0.44999999     107839.01    
     12800   298.44723      15965.503     -1136.4899     -1058.0032      1960.8175      21254.172     -4920.9982     -133.99512      0.44999999     107839.01    
     12900   296.44936      15871.096     -1160.1481     -1063.156       1962.2201      21177.822     -4924.4513     -121.1904       0.44999999     107839.01    
     13000   301.34947      15844.568     -1170.8308     -1002.7993      1904.4926      21166.384     -4928.596      -124.08222      0.44999999     107839.01    
     13100   304.6257       15930.863     -1156.0751     -1021.8873      1926.1152      21189.122     -4890.0439     -116.36816      0.44999999     107839.01    
     13200   301.0902       15967.073     -1157.5853     -1041.7253      1959.2061      21239.71      -4907.6713     -124.86124      0.44999999     107839.01    
     13300   300.12872      15986.107     -1187.1721     -1075.4166      2029.274       21280.064     -4923.6757     -136.96652      0.44999999     107839.01    
     13400   300.02016      15908.042     -1161.9831     -1062.0366      1950.7108      21165.258     -4856.9069     -126.99972      0.44999999     107839.01    
     13500   300.53239      15915.556     -1185.373      -1048.1723      1964.9006      21215.058     -4902.0569     -128.80019      0.44999999     107839.01    
     13600   298.91507      15857.691     -1158.5639     -1096.0144      1943.221       21197.921     -4913.3956     -115.47678      0.44999999     107839.01    
     13700   300.63554      15816.466     -1204.768      -1051.5485      1887.6439      21282.848     -4970.3952     -127.31443      0.44999999     107839.01    
     13800   299.88721      15989.623     -1189.9286     -985.13326      1952.6821      21278.821     -4948.2435     -118.57426      0.44999999     107839.01    
     13900   302.01928      15966.664     -1161.263      -1006.8719      1950.2521      21262.705     -4941.052      -137.10629      0.44999999     107839.01    
     14000   301.79187      16041.147     -1176.2064     -1017.9848      1980.8464      21271.27      -4887.2159     -129.5621       0.44999999     107839.01    
     14100   306.33272      16097.111     -1140.7055     -925.03619      1950.885       21235.97      -4891.5712     -132.43029      0.44999999     107839.01    
     14200   300.06409      15980.341     -1194.0327     -959.39845      1954.9523      21230.703     -4929.0259     -122.85749      0.44999999     107839.01    
     14300   297.41045      15975.261     -1171.5662     -954.33807      1889.6639      21239.475     -4904.7119     -123.26247      0.44999999     107839.01    
     14400   294.95323      16090.18      -1162.2103     -918.86708      2019.2557      21192.913     -4918.2798     -122.63128      0.44999999     107839.01    
     14500   302.23478      16083.709     -1151.1259     -943.98502      1907.926       21251.06      -4858.2521     -121.91407      0.44999999     107839.01    
     14600   303.46054      15994.975     -1145.4542     -975.52089      1956.1823      21180.964     -4891.731      -129.46577      0.44999999     107839.01    
     14700   299.44463      16024.123     -1164.0479     -1008.2527      1978.0239      21226.23      -4885.499      -122.33083      0.44999999     107839.01    
     14800   298.55485      15991.258     -1178.6821     -1002.3751      1935.6583      21247.211     -4886.5677     -123.98624      0.44999999     107839.01    
     14900   304.76969      16054.684     -1131.0235     -947.02596      1953.4947      21186.568     -4883.5416     -123.78755      0.44999999     107839.01    
     15000   304.65417      15901.898     -1182.1729     -1049.5458      1951.4217      21161.226     -4856.2517     -122.77991      0.44999999     107839.01    
     15100   299.40519      15871.363     -1188.4094     -1070.4297      1910.4535      21168.074     -4823.6875     -124.63835      0.44999999     107839.01    
     15200   303.22499      15934.528     -1183.7309     -1048.2712      1943.7972      21196.339     -4855.3952     -118.21067      0.44999999     107839.01    
     15300   302.93678      15957.218     -1162.2987     -961.7614       1928.026       21237.074     -4957.6688     -126.15263      0.44999999     107839.01    
     15400   302.89707      15951.235     -1193.2472     -982.57547      1910.2071      21173.319     -4826.612      -129.85701      0.44999999     107839.01    
     15500   300.33016      16033.301     -1193.7697     -976.48079      1992.4085      21305.439     -4967.3926     -126.90332      0.44999999     107839.01    
     15600   297.17861      16081.453     -1164.022      -929.2339       2027.973       21152.846     -4877.5725     -128.53779      0.44999999     107839.01    
     15700   299.84375      16008.733     -1156.0806     -939.65033      1913.469       21236.117     -4921.9218     -123.20014      0.44999999     107839.01    
     15800   306.40522      16016.812     -1182.5385     -922.67267      1950.3662      21209.375     -4911.1104     -126.60806      0.44999999     107839.01    
     15900   302.80165      15934.959     -1205.6        -985.29501      1902.7617      21318.17      -4970.0208     -125.05632      0.44999999     107839.01    
     16000   300.69651      16050.774     -1207.3751     -948.70856      1984.0358      21197.04      -4851.7056     -122.51245      0.44999999     107839.01    
     16100   296.57894      15985.073     -1217.0026     -929.56218      1932.043       21241.763     -4912.1764     -129.99143      0.44999999     107839.01    
     16200   295.70014      16009.377     -1207.3894     -872.54195      1955.6407      21128.524     -4858.7148     -136.1412       0.44999999     107839.01    
     16300   296.65996      15927.083     -1226.2314     -935.00288      1890.5933      21206.973     -4880.0004     -129.2483       0.44999999     107839.01    
     16400   300.11138      15955.749     -1195.6939     -930.11127      1925.3595      21190.366     -4911.6823     -122.48916      0.44999999     107839.01    
     16500   299.34337      15961.145     -1209.3603     -949.60802      1968.3003      21163.997     -4890.8662     -121.31764      0.44999999     107839.01    
     16600   300.66765      15893.544     -1208.1588     -1029.0246      1956.648       21237.037     -4934.8963     -128.06164      0.44999999     107839.01    
     16700   303.38373      15795.518     -1214.8964     -1015.5494      1932.5132      21139.033     -4914.2562     -131.32559      0.44999999     107839.01    
     16800   294.53792      15856.02      -1222.4983     -1003.3747      1925.3379      21221.541     -4937.8454     -127.14073      0.44999999     107839.01    
     16900   297.41087      15893.13      -1226.37       -1050.0935      1940.4208      21285.623     -4924.1546     -132.29547      0.44999999     107839.01    
     17000   303.30113      15919.693     -1212.5243     -1017.1272      1982.5141      21182.829     -4891.931      -124.06746      0.44999999     107839.01    
     17100   301.05443      15864.558     -1213.4047     -995.04842      1900.6028      21129.556     -4829.187      -127.96032      0.44999999     107839.01    
     17200   300.58863      15874.617     -1198.4184     -1066.4851      1986.4778      21132.64      -4851.4212     -128.1756       0.44999999     107839.01    
     17300   299.24446      15830.421     -1229.7892     -1064.5189      1944.6106      21173.405     -4864.3733     -128.91263      0.44999999     107839.01    
     17400   302.11542      15939.261     -1231.3266     -995.28131      1978.3602      21242.785     -4924.7036     -130.57218      0.44999999     107839.01    
     17500   301.70406      15824.591     -1243.0487     -1000.4973      1947.7021      21135.628     -4885.2913     -129.90173      0.44999999     107839.01    
     17600   295.76417      15917.426     -1254.5044     -965.18466      1929.9708      21245.117     -4914.9097     -123.06346      0.44999999     107839.01    
     17700   291.60791      16002.099     -1238.7209     -909.60945      1952.8664      21260.219     -4927.3641     -135.29244      0.44999999     107839.01    
     17800   301.00072      15863.756     -1255.5966     -973.60108      1928.4134      21229.777     -4938.092      -127.14486      0.44999999     107839.01    
     17900   299.38916      15846.119     -1232.9116     -1033.7397      1965.4038      21216.358     -4932.1818     -136.80969      0.44999999     107839.01    
     18000   298.56321      15797.411     -1234.6823     -1038.0102      1946.3863      21117.864     -4863.9156     -130.23097      0.44999999     107839.01    
     18100   302.44799      15868.356     -1239.5238     -1052.1975      1984.7023      21199.818     -4899.9676     -124.47572      0.44999999     107839.01    
     18200   306.25422      15892.596     -1246.7154     -994.9693       1987.3431      21177.811     -4902.4396     -128.43422      0.44999999     107839.01    
     18300   296.92483      15857.571     -1246.7216     -1026.9764      1935.1794      21224.448     -4903.3548     -125.00334      0.44999999     107839.01    
     18400   300.02468      15781.68      -1242.7746     -1040.3616      1918.019       21150.403     -4875.9067     -127.69905      0.44999999     107839.01    
     18500   297.6986       15758.814     -1226.2817     -1053.4965      1899.9678      21169.631     -4913.5589     -117.44676      0.44999999     107839.01    
     18600   300.0566       15673.194     -1241.0713     -1107.1415      1914.374       21159.129     -4933.3162     -118.77975      0.44999999     107839.01    
     18700   300.93953      15723.771     -1244.0492     -1072.6428      1882.9919      21174.885     -4891.9605     -125.45379      0.44999999     107839.01    
     18800   295.48763      15798.973     -1260.045      -1014.6033      1917.4218      21241.876     -4955.7482     -129.92799      0.44999999     107839.01    
     18900   291.48454      15920.57      -1242.1748     -960.51438      1921.4758      21192.971     -4859.775      -131.41277      0.44999999     107839.01    
     19000   297.48122      15752.394     -1249.4402     -997.51222      1927.7524      21117.058     -4911.7455     -133.71849      0.44999999     107839.01    
     19100   295.73049      15773.784     -1255.3402     -1001.812       1957.2833      21133.556     -4935.0917     -124.81149      0.44999999     107839.01    
     19200   297.53356      15784.39      -1251.0312     -979.7007       1920.6239      21154.934     -4943.2591     -117.1769       0.44999999     107839.01    
     19300   294.81864      15823.86      -1209.0888     -931.10009      1916.9908      21129.357     -4952.5011     -129.7974       0.44999999     107839.01    
     19400   296.3661       15844.548     -1243.7842     -990.57568      1949.6806      21170.594     -4919.9879     -121.37868      0.44999999     107839.01    
     19500   295.71268      15845.51      -1278.8443     -1073.9201      1991.3954      21233.347     -4888.2287     -138.23889      0.44999999     107839.01    
     19600   301.04349      15925.005     -1266.3653     -941.89248      1999.141       21213.506     -4942.5625     -136.82185      0.44999999     107839.01    
     19700   306.12794      15895.672     -1261.4703     -1035.9645      1976.7255      21262.512     -4916.2044     -129.92689      0.44999999     107839.01    
     19800   306.26949      15951.45      -1255.2365     -956.28211      2010.3136      21166.483     -4896.3341     -117.49311      0.44999999     107839.01    
     19900   301.44618      15912.612     -1248.0606     -958.30388      1944.3337      21234.707     -4929.2954     -130.76843      0.44999999     107839.01    
     20000   302.85973      15745.181     -1255.2162     -996.0516       1871.218       21098.321     -4843.4203     -129.66961      0.44999999     107839.01    
     20041   295.26907      15952.907     -1252.1327     -969.86328      1978.479       21230.644     -4906.3658     -127.85398      0.44999999     107839.01    
Loop time of 122.483 on 6 procs for 20000 steps with 4972 atoms

Performance: 14.108 ns/day, 1.701 hours/ns, 163.288 timesteps/s, 811.868 katom-step/s
99.0% CPU use with 6 MPI tasks x no OpenMP threads

MPI task timing breakdown:
Section |  min time  |  avg time  |  max time  |%varavg| %total
---------------------------------------------------------------
Pair    | 25.989     | 34.664     | 45.421     | 115.3 | 28.30
Bond    | 39.769     | 44.768     | 53.302     |  80.3 | 36.55
Neigh   | 3.1357     | 3.147      | 3.1641     |   0.5 |  2.57
Comm    | 19.095     | 35.71      | 48.513     | 180.7 | 29.16
Output  | 0.045562   | 0.068467   | 0.12165    |   9.7 |  0.06
Modify  | 0.73871    | 0.86266    | 0.99305    |  10.9 |  0.70
Other   |            | 3.263      |            |       |  2.66

Nlocal:        828.667 ave        1028 max         623 min
Histogram: 1 0 1 1 0 0 0 2 0 1
Nghost:        5386.17 ave        5545 max        5168 min
Histogram: 1 0 0 0 1 1 0 2 0 1
Neighs:         154728 ave      217911 max      114178 min
Histogram: 2 0 1 0 1 1 0 0 0 1

Total # of neighbors = 928370
Ave neighs/atom = 186.71963
Ave special neighs/atom = 11.989541
Neighbor list builds = 532
Dangerous builds = 0
Generated 28 of 28 mixed pair_coeff terms from sixthpower/geometric mixing rule
Setting up Verlet run ...
  Unit style    : real
  Current step  : 20041
  Time step     : 1
Per MPI rank memory allocation (min/avg/max) = 27.27 | 27.37 | 27.7 Mbytes
   Step          Temp          PotEng         E_vdwl         E_coul         E_bond        E_angle        E_dihed        E_impro        Density         Volume    
     20041   295.26907      15952.907     -1252.1327     -969.86328      1978.479       21230.644     -4906.3658     -127.85398      0.44999999     107839.01    
     20100   296.1488       15911.99      -1244.8337     -1000.6072      1922.9741      21244.216     -4876.8139     -132.9452       0.45055123     107707.08    
     20200   300.03574      15965.154     -1207.557      -925.10167      1977.4921      21219.921     -4968.9124     -130.68799      0.45304426     107114.38    
     20300   299.57295      15989.74      -1264.5638     -916.08632      1892.0174      21356.449     -4949.9521     -128.1239       0.45577646     106472.27    
     20400   306.66357      15735.462     -1289.6076     -1022.5555      1878.6107      21168.386     -4867.2441     -132.12771      0.45937244     105638.81    
     20500   301.46887      15747.087     -1273.6636     -963.68891      1841.6279      21199.805     -4925.4968     -131.49674      0.46320782     104764.11    
     20600   297.90267      15720.584     -1307.4968     -1019.6699      1921.8324      21195.33      -4939.0702     -130.34228      0.46675751     103967.38    
     20700   302.4434       15660.685     -1336.0349     -1037.6653      1818.2569      21281.58      -4941.8258     -123.6261       0.47023988     103197.45    
     20800   297.54351      15829.677     -1299.0985     -1007.0417      1934.3631      21256.944     -4921.5003     -133.98908      0.47365138     102454.16    
     20900   304.44329      15686.614     -1341.2066     -1062.5295      1885.0256      21267.253     -4937.9925     -123.93627      0.47698599     101737.91    
     21000   299.77188      15727.066     -1329.3178     -1006.8703      1933.0298      21203.165     -4942.8401     -130.10063      0.48091369     100907       
     21100   299.69797      15556.373     -1355.7461     -1076.5095      1906.3903      21163.17      -4962.0377     -118.89424      0.48438936     100182.95    
     21200   296.24037      15651.396     -1354.326      -1027.5064      1922.3562      21204.518     -4963.8321     -129.81369      0.48809211     99422.946    
     21300   302.75889      15531.398     -1368.4579     -1106.6761      1944.3468      21203.092     -5021.9754     -118.932        0.49167543     98698.353    
     21400   306.79153      15562.267     -1343.7894     -1128.2632      1874.737       21253.728     -4975.9769     -118.16851      0.49547791     97940.906    
     21500   302.65255      15572.948     -1377.7917     -1155.7602      2000.6818      21154.927     -4915.5049     -133.60334      0.49867317     97313.347    
     21600   302.60408      15524.014     -1390.1912     -1060.9955      1874.2204      21188.972     -4966.8336     -121.15721      0.50205697     96657.467    
     21700   298.41136      15513.919     -1406.6135     -1089.2445      1917.9013      21138.514     -4921.3112     -125.32682      0.50504126     96086.319    
     21800   294.79809      15594.895     -1402.7102     -1057.7862      1927.1963      21237.752     -4991.0202     -118.53762      0.50855686     95422.083    
     21900   298.21043      15576.776     -1377.4519     -1110.0501      1937.1368      21235.509     -4983.0309     -125.33655      0.51270855     94649.397    
     22000   300.60818      15694.654     -1391.1767     -1035.9513      1975.1473      21201.744     -4931.8338     -123.2755       0.51639686     93973.374    
     22100   303.51305      15568.468     -1417.0865     -1060.6401      1893.499       21225.908     -4947.4293     -125.78332      0.51967714     93380.2      
     22200   299.87487      15539.028     -1422.3327     -999.714        1844.0893      21166.317     -4920.6344     -128.69757      0.5229898      92788.722    
     22300   297.63459      15611.105     -1389.3905     -977.78885      1856.9679      21192.976     -4946.7811     -124.87778      0.52574883     92301.784    
     22400   301.97622      15501.008     -1423.4321     -1082.8742      1863.0898      21228.286     -4952.4762     -131.58503      0.52809657     91891.441    
     22500   300.70187      15583.067     -1377.9657     -1039.4518      1969.4959      21161.083     -5003.0391     -127.05478      0.53074269     91433.299    
     22600   303.82278      15501.679     -1459.9392     -1002.4611      1860.0028      21191.289     -4974.7319     -112.48108      0.53396622     90881.321    
     22700   299.46468      15435.113     -1448.6289     -1018.0393      1816.5502      21166.559     -4949.2199     -132.10768      0.53802065     90196.454    
     22800   298.04012      15470.733     -1507.8849     -990.09207      1863.5322      21190.385     -4956.7266     -128.47987      0.54284785     89394.395    
     22900   301.12119      15468.463     -1441.0024     -1046.0739      1911.1977      21190.453     -5011.1269     -134.98482      0.5474074      88649.798    
     23000   300.68462      15621.314     -1502.2153     -951.6502       1962.0663      21194.492     -4962.7556     -118.62318      0.55104442     88064.688    
     23100   304.68564      15548.579     -1441.3184     -960.95964      1856.7731      21175.832     -4951.3732     -130.37514      0.55537211     87378.452    
     23200   298.6491       15434.145     -1473.647      -1072.7791      1875.0143      21210.323     -4981.99       -122.77528      0.55840465     86903.924    
     23300   299.90412      15268.169     -1481.0689     -1161.759       1855.9576      21086.063     -4897.5681     -133.45538      0.56094476     86510.4      
     23400   296.78318      15453.026     -1482.9479     -1041.67        1909.1984      21201.475     -5019.5169     -113.51299      0.56334143     86142.351    
     23500   301.16313      15460.733     -1527.8112     -1047.0039      1866.4164      21251.221     -4958.3368     -123.7529       0.56598        85740.759    
     23600   308.43654      15522.44      -1488.2269     -1015.3822      1917.8917      21194.569     -4958.6633     -127.7489       0.5690212      85282.508    
     23700   304.83003      15732.779     -1523.1461     -863.57169      1886.9007      21302.715     -4936.6382     -133.48116      0.57200679     84837.377    
     23800   305.87484      15510.561     -1523.307      -976.23972      1886.8823      21176.312     -4924.0589     -129.02834      0.57419197     84514.515    
     23900   298.30565      15614.648     -1520.2651     -910.56881      1864.2786      21297.048     -4981.2874     -134.5574       0.57617303     84223.927    
     24000   303.33971      15332.491     -1508.9488     -1046.7809      1901.7135      21029.813     -4914.6703     -128.63539      0.57811186     83941.464    
     24100   299.06307      15456.552     -1520.8285     -951.6949       1835.0977      21193.431     -4969.7833     -129.66964      0.58005974     83659.582    
     24200   298.05079      15381.402     -1533.4943     -1043.0256      1904.007       21090.955     -4911.7476     -125.29174      0.58265785     83286.539    
     24300   301.34536      15367.438     -1531.6968     -1108.3493      1869.2397      21288.168     -5022.7062     -127.21658      0.58608381     82799.686    
     24400   302.0285       15448.691     -1499.1224     -1080.5867      1882.4778      21270.685     -5006.1031     -118.66015      0.58943896     82328.382    
     24500   299.85901      15493.732     -1521.3947     -1042.0799      1934.4246      21282.584     -5040.8136     -118.98893      0.59135314     82061.889    
     24600   295.59072      15389.286     -1530.3064     -1078.8581      1902.0243      21171.488     -4946.5473     -128.51453      0.59414004     81676.964    
     24700   302.58274      15344.784     -1533.0728     -986.21709      1852.2003      21150.758     -5009.8042     -129.07954      0.59726708     81249.338    
     24800   295.80493      15401.127     -1548.7467     -1054.3985      1863.9792      21244.302     -4971.8713     -132.13839      0.60143738     80685.964    
     24900   297.07798      15431.703     -1517.3425     -1035.979       1866.6384      21222.568     -4980.8452     -123.33587      0.60514794     80191.226    
     25000   300.77588      15320.274     -1560.105      -1186.184       1898.8404      21318.21      -5019.8307     -130.65695      0.60843041     79758.596    
     25100   309.88351      15398.467     -1522.6203     -1067.6283      1919.487       21189.534     -4986.7546     -133.55073      0.61190562     79305.621    
     25200   306.18456      15418.058     -1546.9851     -1001.2685      1925.8083      21187.756     -5023.2219     -124.03053      0.61466262     78949.905    
     25300   298.17995      15430.849     -1534.524      -984.74435      1914.7416      21190.785     -5021.3244     -134.08554      0.61809492     78511.493    
     25400   302.71385      15327.501     -1543.0854     -1006.6678      1859.5433      21127.175     -4983.1461     -126.3179       0.62129939     78106.555    
     25500   307.17348      15282.61      -1590.8049     -1014.5952      1836.075       21125.012     -4939.914      -133.16232      0.62441461     77716.88     
     25600   300.66344      15366.254     -1559.0906     -993.78601      1921.5086      21139.667     -5014.0994     -127.94572      0.62849862     77211.873    
     25700   296.78447      15293.525     -1603.3861     -1039.3006      1849.7711      21289.341     -5079.3263     -123.57414      0.63218372     76761.792    
     25800   295.67354      15363.061     -1589.2166     -964.84406      1865.9477      21206.15      -5018.7338     -136.24173      0.63649193     76242.216    
     25900   307.86322      15287.972     -1621.7409     -997.07599      1815.9424      21178.649     -4971.1172     -116.68549      0.6395744      75874.761    
     26000   304.38303      15391.018     -1628.5093     -982.4335       1866.6772      21197.28      -4936.9259     -125.07056      0.6428473      75488.464    
     26100   298.52694      15370.465     -1612.2472     -1025.9331      1929.5073      21188.417     -4980.358      -128.92094      0.64725639     74974.239    
     26200   299.75878      15353.024     -1660.4163     -950.99602      1843.7582      21185.493     -4936.5407     -128.27433      0.65182766     74448.444    
     26300   300.99328      15273.179     -1635.4897     -975.68657      1800.9272      21163.424     -4948.7599     -131.23677      0.65642382     73927.17     
     26400   300.70404      15410.45      -1635.1774     -863.24007      1818.7741      21175.911     -4951.5968     -134.22099      0.65960577     73570.544    
     26500   299.7488       15229.466     -1644.001      -1080.626       1828.0111      21243.678     -4982.4514     -135.14465      0.66211459     73291.777    
     26600   299.17632      15146.317     -1646.5336     -1175.5759      1862.1158      21186.153     -4951.0724     -128.77001      0.66593793     72870.989    
     26700   294.17566      15172.717     -1641.0265     -1220.9047      1889.2261      21223.182     -4941.496      -136.26366      0.66960619     72471.784    
     26800   299.07401      15364.961     -1674.7996     -950.80245      1885.943       21124.284     -4892.7463     -126.91753      0.6732256      72082.159    
     26900   304.43087      15100.591     -1648.5197     -1120.7472      1804.7935      21195.145     -4997.6617     -132.4191       0.67833404     71539.32     
     27000   301.46369      15218.051     -1659.3227     -1010.0298      1838.4169      21194.471     -5017.7068     -127.7769       0.68265994     71085.986    
     27100   295.54778      15150.185     -1700.7738     -1083.6029      1883.7306      21136.671     -4956.5787     -129.26131      0.68712852     70623.695    
     27200   292.74231      14980.971     -1723.8839     -1187.0929      1806.4029      21224.146     -5010.2561     -128.34553      0.69265646     70060.063    
     27300   300.30733      15046.636     -1685.3713     -1124.8949      1882.6175      21161.738     -5065.8546     -121.59906      0.69851888     69472.074    
     27400   301.5613       15155.404     -1719.8109     -1091.1601      1884.9252      21202.655     -4995.6292     -125.57607      0.70271201     69057.529    
     27500   300.37708      15096.263     -1681.2307     -1169.2865      1889.1846      21230.603     -5051.7581     -121.24873      0.70653428     68683.936    
     27600   302.12524      15089.961     -1717.1883     -1083.4025      1860.9125      21148.857     -4989.4406     -129.77694      0.71006099     68342.799    
     27700   298.54714      15049.207     -1690.99       -1093.3284      1842.1151      21131.602     -5007.9842     -132.20801      0.71263831     68095.63     
     27800   298.6175       15055.369     -1695.1591     -1089.9321      1820.8566      21151.97      -4996.2079     -136.15935      0.71346829     68016.415    
     27900   302.45602      15106.963     -1707.7348     -1133.0616      1855.0191      21238.116     -5021.791      -123.58394      0.71343796     68019.307    
     28000   303.50272      15181.067     -1698.1548     -1055.824       1847.0699      21227.072     -5009.8292     -129.26686      0.71430248     67936.983    
     28100   299.50378      15135.419     -1727.1369     -1098.6509      1889.0968      21172.045     -4967.4163     -132.51842      0.7155187      67821.506    
     28200   300.21729      14992.575     -1749.0968     -1137.4164      1808.8559      21160.397     -4963.6664     -126.49793      0.7179016      67596.388    
     28300   299.23737      15112.327     -1728.1648     -1005.9875      1840.5909      21090.665     -4944.2465     -140.53096      0.72255791     67160.783    
     28400   301.82867      15091.48      -1746.4225     -1082.6044      1870.8252      21136.701     -4970.0841     -116.93521      0.72683575     66765.504    
     28500   303.17844      15196.908     -1738.5642     -1055.9064      1884.9836      21193.019     -4954.8524     -131.77182      0.73003187     66473.201    
     28600   303.24752      15084.215     -1744.7398     -1147.6623      1872.3718      21223.744     -4995.4554     -124.04358      0.73127493     66360.207    
     28700   298.63633      15146.605     -1785.4698     -1036.2358      1879.8259      21212.901     -4997.698      -126.71762      0.73221915     66274.633    
     28800   298.76712      14963.69      -1746.5286     -1177.9107      1761.5077      21323.739     -5070.5402     -126.57665      0.7345072      66068.182    
     28900   300.44235      15112.192     -1731.9488     -1009.5859      1835.0154      21183.897     -5036.9289     -128.25686      0.73624473     65912.261    
     29000   301.92684      15171.507     -1761.0216     -996.82241      1841.7934      21308.563     -5102.4963     -118.50918      0.73850342     65710.671    
     29100   306.71508      15196.738     -1738.6929     -998.09868      1897.888       21120.932     -4958.7012     -126.58975      0.74220429     65383.017    
     29200   303.73848      15188.881     -1722.6782     -1079.068       1895.4721      21234.413     -5007.2963     -131.96172      0.74600089     65050.264    
     29300   303.20457      15004.949     -1754.0105     -1122.3037      1868.4985      21186.559     -5047.9667     -125.82746      0.7481616      64862.398    
     29400   301.18928      15029.455     -1762.1486     -1062.3741      1834.11        21114.04      -4966.6309     -127.54131      0.74978713     64721.777    
     29500   298.35991      15080.445     -1752.2488     -1058.7067      1859.007       21139.555     -4989.3857     -117.77589      0.75346049     64406.237    
     29600   299.58154      15011.899     -1765.0972     -1123.7018      1872.3721      21170.532     -5018.6801     -123.52589      0.75835285     63990.733    
     29700   304.64702      14993.354     -1751.3953     -1111.7611      1826.5596      21161.729     -5003.8993     -127.87916      0.76283708     63614.573    
     29800   303.14528      15108.974     -1788.2619     -1018.4907      1840.8541      21235.641     -5025.3452     -135.42404      0.76564961     63380.892    
     29900   301.0469       15027.814     -1733.1144     -999.13452      1801.0777      21099.317     -5008.3018     -132.03015      0.76913757     63093.467    
     30000   298.36926      14928.246     -1788.1713     -1080.3472      1834.6414      21133.929     -5045.881      -125.92558      0.77079649     62957.676    
     30041   298.54004      14851.572     -1780.7068     -1164.5422      1853.9413      21104.763     -5029.2062     -132.67758      0.77163472     62889.284    
Loop time of 87.1391 on 6 procs for 10000 steps with 4972 atoms

Performance: 9.915 ns/day, 2.421 hours/ns, 114.759 timesteps/s, 570.582 katom-step/s
99.0% CPU use with 6 MPI tasks x no OpenMP threads

MPI task timing breakdown:
Section |  min time  |  avg time  |  max time  |%varavg| %total
---------------------------------------------------------------
Pair    | 19.813     | 25.282     | 31.199     |  75.7 | 29.01
Bond    | 21.673     | 25.453     | 27.728     |  44.6 | 29.21
Neigh   | 2.6771     | 2.6885     | 2.7064     |   0.6 |  3.09
Comm    | 16.988     | 25.171     | 34.328     | 106.7 | 28.89
Output  | 0.029317   | 0.044334   | 0.071465   |   6.1 |  0.05
Modify  | 5.9322     | 7.4716     | 8.4819     |  39.5 |  8.57
Other   |            | 1.029      |            |       |  1.18

Nlocal:        828.667 ave         939 max         647 min
Histogram: 1 0 0 1 0 0 0 1 2 1
Nghost:        7550.17 ave        7770 max        7423 min
Histogram: 1 2 0 1 0 1 0 0 0 1
Neighs:         237416 ave      285658 max      163274 min
Histogram: 1 0 0 1 0 0 0 2 1 1

Total # of neighbors = 1424494
Ave neighs/atom = 286.50322
Ave special neighs/atom = 11.989541
Neighbor list builds = 318
Dangerous builds = 0
Read molecule template pre:
  1 molecules
  0 fragments
  24 atoms with max type 7
  23 bonds with max type 11
  40 angles with max type 26
  48 dihedrals with max type 37
  24 impropers with max type 24
Read molecule template post:
  1 molecules
  0 fragments
  24 atoms with max type 7
  23 bonds with max type 9
  40 angles with max type 25
  51 dihedrals with max type 38
  24 impropers with max type 25
dynamic group bond_react_MASTER_group defined
dynamic group statted_grp_REACT defined

CITE-CITE-CITE-CITE-CITE-CITE-CITE-CITE-CITE-CITE-CITE-CITE-CITE

Your simulation uses code contributions which should be cited:
- fix bond/react: reacter.org doi:10.1016/j.polymer.2017.09.038, doi:10.1021/acs.macromol.0c02012
The log file lists these citations in BibTeX format.

CITE-CITE-CITE-CITE-CITE-CITE-CITE-CITE-CITE-CITE-CITE-CITE-CITE

Generated 28 of 28 mixed pair_coeff terms from sixthpower/geometric mixing rule
Neighbor list info ...
  update: every = 1 steps, delay = 0 steps, check = yes
  max neighbors/atom: 2000, page size: 100000
  master list distance cutoff = 12
  ghost atom cutoff = 12
  binsize = 6, bins = 7 7 7
  2 neighbor lists, perpetual/occasional/extra = 1 1 0
  (1) pair lj/class2/coul/cut, perpetual
      attributes: half, newton on
      pair build: half/bin/newton
      stencil: half/bin/3d
      bin: standard
  (2) fix bond/react, occasional, copy from (1)
      attributes: half, newton on
      pair build: copy
      stencil: none
      bin: none
Setting up Verlet run ...
  Unit style    : real
  Current step  : 30041
  Time step     : 1
Per MPI rank memory allocation (min/avg/max) = 34.35 | 34.8 | 34.95 Mbytes
   Step          Temp          PotEng         E_vdwl         E_coul         E_bond        E_angle        E_dihed        E_impro        Density         Volume       f_fxrct[1]  
     30041   298.54004      14851.572     -1780.7068     -1164.5422      1853.9413      21104.763     -5029.2062     -132.67758      0.77163472     62889.284      0            
     30100   299.27223      479676.42      6267.0295     -1162.6592      458989.26      20739.586     -5025.2179     -131.58383      0.77182248     62873.985      3            
     30200   311.78791      14970.35      -1853.9995     -1103.3279      1863.4059      21329.149     -5137.1476     -127.73023      0.84839242     57199.421      3            
     30300   312.68117      39050.989     -129.81983     -1129.9628      24594.39       20855.896     -5000.9616     -138.55323      0.84669093     57314.368      4            
     30400   306.17803      62816.841      467.39122     -1133.0881      48010.306      20700.146     -5109.3832     -118.5311       0.85244229     56927.672      5            
     30500   295.63706      14294.449     -1904.8187     -1109.0871      1722.1747      20739.207     -5027.5082     -125.51926      0.87112124     55707.005      5            
     30600   299.46004      442228.27      4600.9221     -1221.4507      423694.12      20294.785     -5007.5334     -132.57555      0.86844293     55878.807      8            
     30700   314.64342      13963.631     -1938.2348     -1069.5701      1635.6169      20536.213     -5079.0845     -121.30929      0.93438262     51935.422      8            
     30800   308.17709      13816.711     -1926.6783     -1171.7234      1664.4411      20432.482     -5047.5522     -134.25867      0.92938989     52214.421      8            
     30900   300.81866      13723.872     -1993.9489     -1188.3592      1670.5864      20401.137     -5048.9711     -116.57202      0.92271113     52592.359      8            
     31000   298.923        13681.778     -1935.2679     -1213.2838      1628.4627      20235.077     -4899.0503     -134.15979      0.91666004     52939.534      8            
     31100   294.54755      13669.85      -1945.2416     -1235.2183      1656.9525      20366.737     -5046.132      -127.24748      0.91057181     53293.496      8            
     31200   293.46694      13739.518     -1949.3843     -1169.4198      1627.0084      20470.859     -5116.1643     -123.38098      0.90455011     53648.277      8            
     31300   295.52359      169864.02      536.67754     -1132.054       155445.57      20247.695     -5107.4963     -126.37398      0.89987704     53926.874      9            
     31400   311.41882      100197.14     -469.27182     -1290.1815      86771.168      20301.154     -5007.323      -108.40358      0.94256854     51484.378      10           
     31500   307.44631      13489.508     -1986.7652     -1200.8582      1595.3337      20296.242     -5084.0878     -130.35605      0.96745817     50159.848      10           
     31600   305.62329      13422.11      -2010.1246     -1228.3409      1626.7598      20210.491     -5049.9306     -126.74539      0.9617684      50456.592      10           
     31700   298.52407      91106.061      446.67234     -1183.0582      76876.095      20122.651     -5044.0739     -112.22476      0.95498535     50814.974      11           
     31800   297.89678      87024.467      465.26273     -1306.4852      73054.408      20096.858     -5160.1456     -125.43073      0.98257461     49388.163      12           
     31900   307.21155      405321.24      343.51578     -1244.8452      391555.38      19893.344     -5104.0086     -122.14533      1.0051908      48276.957      13           
     32000   315.31966      46314.215     -78.443094     -1236.943       32710.315      20172.481     -5136.7492     -116.44596      1.0836384      44782.054      14           
     32100   312.902        118178.87      445.15984     -1145.8071      104336.5       19736.312     -5058.2708     -135.01992      1.0798304      44939.981      15           
     32200   303.01715      13283.621     -1926.6777     -1003.6487      1530.2312      19946.644     -5151.6248     -111.3035       1.1056489      43890.565      15           
     32300   300.89707      13007.309     -2070.8968     -1047.6982      1576.889       19690.48      -5015.5382     -125.92669      1.0875445      44621.214      15           
     32400   297.06338      12734.63      -2115.8168     -1164.5005      1498.0745      19716.491     -5085.957      -113.6614       1.0693118      45382.044      15           
     32500   294.44349      12775.225     -2114.3731     -1119.9952      1541.9487      19649.055     -5062.8065     -118.60393      1.0532259      46075.162      15           
     32600   295.52143      12774.205     -2115.2289     -1189.9992      1553.9491      19757.707     -5119.4907     -112.73305      1.0380013      46750.958      15           
     32700   302.85341      129763.01      410.96295     -1110.8405      116009.25      19604.697     -5033.0723     -117.98139      1.0249834      47344.722      16           
     32800   303.74088      13123.626     -2146.1685     -959.26039      1582.5704      19807.646     -5041.45       -119.71077      1.0614591      45717.783      16           
     32900   300.43385      12826.698     -2107.5432     -1075.6006      1658.9017      19596.139     -5120.6794     -124.51985      1.0515742      46147.534      16           
     33000   307.26819      12687.879     -2132.8997     -1217.06        1599.2965      19552.684     -4995.4519     -118.68993      1.0392946      46692.781      16           
     33100   302.26386      12558.397     -2166.7886     -1274.4744      1640.8005      19483.47      -5008.0418     -116.56942      1.0281279      47199.92       16           
     33200   292.93203      161865.3      -299.86839     -1213.5864      149171.8       19486.12      -5158.3866     -120.77627      1.0173256      47701.107      17           
     33300   307.57406      224348.04      65.907771     -1029.6052      211155.64      19418.783     -5138.3126     -124.37639      1.0599461      45783.042      18           
     33400   313.4808       12541.282     -2075.2938     -1199.8601      1539.3545      19478.358     -5081.1722     -120.10434      1.1092132      43749.528      18           
     33500   308.28924      12334.092     -2114.556      -1216.2146      1485.5301      19321.496     -5018.2385     -123.92525      1.0941173      44353.158      18           
     33600   295.39579      12461.338     -2120.8511     -1083.8172      1548.198       19362.716     -5139.5364     -105.37086      1.0782199      45007.105      18           
     33700   295.71188      12308.697     -2172.0104     -1221.593       1575.0751      19349.379     -5093.2888     -128.86473      1.0624103      45676.849      18           
     33800   296.5799       12432.882     -2212.6073     -1120.2574      1622.0338      19320.68      -5066.2859     -110.68099      1.048589       46278.909      18           
     33900   300.548        12271.208     -2162.2419     -1276.4149      1562.3989      19332.357     -5057.2226     -127.66825      1.0364415      46821.316      18           
     34000   302.4378       12295.505     -2214.9434     -1268.1313      1685.853       19237.241     -5031.2501     -113.26405      1.0252397      47332.889      18           
     34100   299.98638      12406.778     -2180.4451     -1132.1622      1652.8534      19254.499     -5065.7381     -122.22999      1.0164058      47744.271      18           
     34200   294.27515      12229.778     -2199.2777     -1264.1968      1624.4558      19242.06      -5064.6611     -108.6022       1.0074859      48166.98       18           
     34300   297.28156      12170.261     -2200.2946     -1305.7363      1635.9433      19223.719     -5067.417      -115.95347      1.0001129      48522.078      18           
     34400   297.05851      62543.384      209.11394     -1108.1947      49283.936      19317.919     -5045.1697     -114.22072      0.99360281     48839.994      19           
     34500   304.87389      12210.066     -2190.2714     -1267.7756      1629.2861      19265.623     -5102.6326     -124.16284      1.0134665      47882.74       19           
     34600   302.67525      12256.334     -2210.5544     -1152.3716      1631.8656      19171.268     -5056.7799     -127.09348      1.0084949      48118.79       19           
     34700   297.54181      58243.876     -189.49912     -1139.0513      45558.174      19220.435     -5090.426      -115.75721      1.0013773      48460.812      20           
     34800   299.82546      12145.07      -2183.3546     -1187.8761      1648.6975      19092.225     -5111.0726     -113.54882      1.0184259      47649.57       20           
     34900   303.74454      12165.907     -2177.7444     -1153.0974      1654.7442      19017.209     -5056.5523     -118.65262      1.0120726      47948.688      20           
     35000   306.68944      12035.139     -2173.2795     -1323.4289      1690.5074      19033.079     -5085.694      -106.04498      1.0040224      48333.139      20           
     35100   304.25384      12145.821     -2143.7816     -1178.4864      1713.2819      18932.624     -5063.429      -114.38733      0.9967975      48683.464      20           
     35200   297.20801      12101.831     -2177.7839     -1217.0195      1665.818       19003.283     -5062.33       -110.13669      0.9901656      49009.535      20           
     35300   296.63241      12244.349     -2147.8203     -1084.6587      1677.4202      18941.502     -5027.3032     -114.7918       0.98431903     49300.637      20           
     35400   301.5367       12099.609     -2190.7646     -1124.0765      1674.5792      18890.618     -5032.5281     -118.21917      0.97936105     49550.22       20           
     35500   301.2654       12037.732     -2158.7937     -1244.2367      1644.1125      18971.837     -5058.7669     -116.42063      0.97471901     49786.2        20           
     35600   302.36488      12155.59      -2147.7344     -1237.3242      1702.3782      18982.978     -5029.8222     -114.88524      0.97015217     50020.561      20           
     35700   301.07077      12137.895     -2139.0367     -1238.0159      1728.0133      19020.078     -5122.3512     -110.79193      0.96644684     50212.338      20           
     35800   300.78416      97764.079      1696.8869     -1232.7438      83634.202      18826.492     -5039.9999     -120.75816      0.96250727     50417.858      21           
     35900   296.98901      12191.791     -2209.5324     -1005.4398      1676.6113      18977.07      -5145.7037     -101.21378      0.99729476     48659.19       21           
     36000   301.29004      11989.915     -2176.2178     -1106.9188      1672.345       18774.813     -5051.4866     -122.62051      0.99517473     48762.849      21           
     36100   294.70035      12001.705     -2170.6125     -1200.0553      1741.1669      18893.502     -5154.3013     -107.99436      0.99013772     49010.915      21           
     36200   302.85524      12054.155     -2182.2711     -1105.9026      1755.8192      18787.321     -5089.5144     -111.29658      0.98526491     49253.307      21           
     36300   302.71517      12066.754     -2175.6562     -1164.7626      1708.1172      18889.329     -5090.8729     -99.400393      0.98069353     49482.895      21           
     36400   305.585        11972.713     -2164.0866     -1238.7953      1688.7066      18955.491     -5149.4464     -119.15596      0.97717353     49661.144      21           
     36500   298.69031      12178.964     -2162.3962     -1037.4305      1711.606       18918.959     -5131.3879     -120.38646      0.97319294     49864.27       21           
     36600   295.31379      12223.322     -2173.2477     -977.76831      1688.4958      18870.44      -5074.8018     -109.79561      0.96929241     50064.929      21           
     36700   294.60724      12084.527     -2170.3422     -1158.3915      1719.5927      18952.147     -5151.7327     -106.74612      0.96623556     50223.317      21           
     36800   304.67124      12001.891     -2145.3992     -1176.5332      1708.8213      18844.323     -5113.5461     -115.77464      0.96362085     50359.594      21           
     36900   303.98838      12064.934     -2139.4596     -1200.8129      1711.5067      18881.165     -5059.5013     -127.96402      0.96014512     50541.896      21           
     37000   298.00124      12000.042     -2151.6233     -1283.7092      1768.2227      18865.816     -5092.0739     -106.59017      0.95687781     50714.474      21           
     37100   294.68683      59407.014     -8.0651634     -1234.2949      47067.726      18715.688     -5015.2773     -118.76267      0.95436102     50848.216      22           
     37200   296.43684      11923.445     -2207.0809     -1203.1         1678.9742      18971.923     -5203.9089     -113.36239      0.97949686     49543.349      22           
     37300   299.41794      11952.192     -2200.4229     -1181.5828      1768.3553      18751.88      -5065.764      -120.27292      0.97932329     49552.13       22           
     37400   305.57957      12047.678     -2181.4152     -1106.2949      1734.9903      18844.582     -5136.6686     -107.51574      0.9753498      49754.001      22           
     37500   303.05627      12022.033     -2148.2356     -1117.6005      1786.0324      18649.223     -5039.3443     -108.04193      0.97164256     49943.835      22           
     37600   299.89226      79865.054      382.67949     -1174.8242      67250.051      18611.009     -5090.336      -113.5254       0.96779401     50142.442      23           
     37700   302.14723      11832.127     -2206.4448     -1074.2371      1685.4646      18703.581     -5171.9656     -104.27077      0.99796295     48626.61       23           
     37800   302.34347      11588.396     -2237.0297     -1275.144       1695.4735      18650.91      -5126.065      -119.7485       0.99628886     48708.319      23           
     37900   300.67602      11686.563     -2231.3685     -1173.297       1688.5651      18679.588     -5167.4128     -109.51172      0.99297207     48871.017      23           
     38000   294.96814      11787.129     -2212.0534     -1100.9023      1680.0129      18566.217     -5037.0939     -109.05116      0.98937844     49048.527      23           
     38100   290.66347      11664.445     -2177.3335     -1219.8571      1735.1456      18554.133     -5109.3771     -118.26538      0.98550694     49241.211      23           
     38200   298.86066      11615.802     -2238.2509     -1277.4042      1739.7706      18615.483     -5114.8232     -108.97325      0.98215098     49409.466      23           
     38300   302.34694      11662.674     -2210.6349     -1280.8672      1737.4896      18640.32      -5104.8179     -118.81642      0.9794927      49543.56       23           
     38400   306.8346       83751.222     -232.6534      -1321.5846      71920.343      18674.276     -5183.7597     -105.39914      0.97567952     49737.187      24           
     38500   305.2858       110359.51      237.59602     -1269.0796      98005.286      18670.667     -5177.7802     -107.17599      1.0076644      48158.448      25           
     38600   306.30534      11537.557     -2219.6706     -1147.0776      1712.0628      18498.588     -5198.0204     -108.32547      1.0376164      46768.302      25           
     38700   297.41585      11502.057     -2230.5526     -1156.8312      1670.7155      18513.087     -5184.8603     -109.50159      1.0322802      47010.063      25           
     38800   299.79343      11329.823     -2239.357      -1206.1982      1727.536       18305.188     -5153.7641     -103.58077      1.0253742      47326.678      25           
     38900   295.47062      11332.903     -2289.2078     -1267.2599      1706.6516      18430.679     -5130.2624     -117.69757      1.0193706      47605.412      25           
     39000   300.28253      11520.422     -2262.7683     -1149.5181      1727.4325      18467.892     -5150.1462     -112.47044      1.0139188      47861.381      25           
     39100   306.78274      11295.517     -2259.3519     -1327.8111      1727.4845      18433.007     -5176.7259     -101.08614      1.0076575      48158.779      25           
     39200   298.99245      11348.265     -2241.6068     -1351.1019      1703.1935      18466.628     -5121.8735     -106.97423      1.0029299      48385.789      25           
     39300   296.83629      11518.158     -2261.0686     -1170.7348      1729.7377      18508.68      -5181.2076     -107.2488       0.99742535     48652.819      25           
     39400   296.86046      459560.23      2792.927      -1222.2727      444947.09      18279.531     -5128.707      -108.34745      0.99369985     48835.225      27           
     39500   316.15579      11633.293     -2237.0939     -1115.755       1722.8287      18569.847     -5208.9623     -97.571293      1.0749367      45144.572      27           
     39600   312.54172      11361.604     -2238.0445     -1156.6961      1697.129       18326.003     -5144.728      -122.05929      1.0673001      45467.582      27           
     39700   302.78117      11177.224     -2259.6421     -1259.0291      1668.3166      18312.089     -5176.2503     -108.25922      1.0567114      45923.187      27           
     39800   298.38704      75635.74       154.65398     -1165.0134      63772.938      18057.14      -5080.6071     -103.37079      1.0466584      46364.274      28           
     39900   299.2159       11183.409     -2245.5086     -1099.5359      1690.6565      18122.284     -5172.7788     -111.7081       1.068195       45429.489      28           
     40000   298.48492      11135.145     -2291.4343     -1179.3062      1705.069       18157.713     -5150.2538     -106.64323      1.0598707      45786.298      28           
     40100   300.50368      11105.175     -2284.3982     -1196.0661      1701.3244      18117.071     -5130.1914     -102.56414      1.0505059      46194.462      28           
     40200   300.80284      10975.143     -2263.9918     -1340.8878      1692.7449      18123.301     -5130.4859     -105.53738      1.041382       46599.189      28           
     40300   297.172        10953.987     -2261.0419     -1363.778       1737.8053      18119.434     -5162.8975     -115.53503      1.0317587      47033.821      28           
     40400   294.91794      10999.494     -2298.8262     -1319.0612      1673.7472      18205.923     -5161.2097     -101.07912      1.0237486      47401.83       28           
     40500   298.16141      55639.713      353.04763     -1143.125       43674.997      18014.228     -5159.7494     -99.685763      1.0173441      47700.238      29           
     40600   307.20283      11076.111     -2235.9485     -1152.0263      1701.7391      18057.224     -5183.9184     -110.95863      1.0350617      46883.731      29           
     40700   303.93991      11019.493     -2260.583      -1186.8147      1664.4449      18027.879     -5123.1824     -102.2505       1.0292261      47149.556      29           
     40800   301.78286      10937.95      -2273.0833     -1164.9202      1687.753       17978.644     -5194.9649     -95.478067      1.021878       47488.599      29           
     40900   301.06225      10796.707     -2239.667      -1319.6705      1683.0673      17985.572     -5203.5349     -109.0596       1.0156203      47781.198      29           
     41000   300.19527      10984.907     -2273.6348     -1242.1085      1708.9332      18039.487     -5150.0448     -97.725015      1.0090406      48092.766      29           
     41100   306.12093      10954.061     -2214.0881     -1248.8393      1712.0989      17972.146     -5156.8367     -110.42004      1.0045996      48305.368      29           
     41200   303.14071      11121.77      -2254.2437     -1130.9707      1732.6755      18033.801     -5150.784      -108.70798      0.9990075      48575.767      29           
     41300   298.62686      11094.448     -2220.882      -1178.3907      1702.7925      18026.956     -5134.6186     -101.40919      0.99494461     48774.127      29           
     41400   297.07444      10940.227     -2208.0193     -1304.1707      1728.0279      17943.691     -5116.6732     -102.62827      0.98974476     49030.374      29           
     41500   299.62194      10866.803     -2243.217      -1248.746       1696.0704      17955.051     -5189.6679     -102.68788      0.98553021     49240.049      29           
     41600   297.00154      10991.47      -2175.6843     -1187.7721      1690.9583      17953.388     -5186.5216     -102.89799      0.9819067      49421.758      29           
     41700   295.24341      11108.199     -2213.1239     -1215.3446      1735.7723      18069.537     -5154.4798     -114.16186      0.97883523     49576.838      29           
     41800   306.36873      10856.624     -2213.6679     -1358.7455      1757.0814      17929.773     -5167.6715     -90.146084      0.97795937     49621.239      29           
     41900   302.81205      10956.675     -2219.7117     -1293.4409      1703.5887      18047.602     -5162.369      -118.99467      0.97605669     49717.968      29           
     42000   298.11326      11131.783     -2195.0979     -1190.1084      1794.7722      18030.981     -5214.1182     -94.645784      0.97409782     49817.949      29           
     42100   300.37074      11113.851     -2165.4847     -1249.0513      1790.9196      17998.123     -5161.7458     -98.909709      0.97331294     49858.122      29           
     42200   306.37901      11154.872     -2214.168      -1168.5101      1819.9937      17964.145     -5144.3789     -102.20971      0.97154804     49948.694      29           
     42300   301.86703      84354.471      323.3622      -1114.7072      72483.182      18010.415     -5234.4029     -113.37762      0.97048648     50003.329      30           
     42400   298.41868      11083.133     -2208.1416     -1120.4022      1767.4196      17933.399     -5176.4064     -112.73522      1.0042413      48322.606      30           
[...]
     58300   300.23221      9840.1203     -2253.3921     -1248.7111      1778.2586      16957.019     -5284.7387     -108.31524      0.98041039     49497.186      38           
     58400   303.06711      9852.3172     -2239.2868     -1213.0393      1730.7157      16945.458     -5267.8468     -103.68374      0.98160798     49436.798      38           
     58500   296.6299       9965.3316     -2229.0292     -1155.6926      1753.4526      16922.091     -5226.6564     -98.83411       0.98060877     49487.172      38           
     58600   295.8921       9886.1829     -2272.1855     -1186.1463      1762.2572      16943.123     -5255.8986     -104.96711      0.98016113     49509.773      38           
     58700   296.49992      9954.7663     -2264.731      -1141.1347      1796.1669      16928.123     -5261.7933     -101.86468      0.98123245     49455.718      38           
     58800   299.2871       10005.568     -2263.7352     -1164.6471      1809.4532      16953.969     -5232.9779     -96.494349      0.98130601     49452.011      38           
     58900   299.08948      9950.9569     -2244.8614     -1243.7912      1842.2082      17018.59      -5310.5661     -110.62249      0.98050619     49492.35       38           
     59000   298.69711      9900.6122     -2191.3831     -1270.1578      1785.4353      16931.838     -5257.654      -97.466692      0.98051698     49491.805      38           
     59100   296.26364      9669.1355     -2253.3163     -1418.9916      1816.8287      16897.556     -5266.4842     -106.45656      0.97990966     49522.479      38           
     59200   296.93521      9787.3765     -2259.2149     -1232.0029      1758.1199      16965.54      -5337.7713     -107.29455      0.98068141     49483.507      38           
     59300   299.12727      9823.9754     -2269.6498     -1270.305       1789.9058      16947.612     -5274.9691     -98.617989      0.98161455     49436.467      38           
     59400   299.16685      9952.1403     -2219.4727     -1245.6405      1840.0173      17020.458     -5344.655      -98.566431      0.9815626      49439.084      38           
     59500   300.07864      9906.9202     -2229.6859     -1246.6674      1876.5573      16901.246     -5295.2227     -99.307325      0.98080745     49477.148      38           
     59600   299.94726      9860.7586     -2248.5504     -1233.9688      1819.9565      16937.233     -5318.3584     -95.553328      0.97954048     49541.143      38           
     59700   296.93573      9865.4099     -2247.0662     -1214.5023      1789.1869      16973.127     -5331.6135     -103.72179      0.9789201      49572.539      38           
     59800   296.39099      9728.2519     -2252.942      -1360.0885      1777.8892      16957.041     -5292.396      -101.25159      0.97735572     49651.887      38           
     59900   300.69643      9838.2821     -2234.9266     -1338.2371      1840.4114      16957.375     -5281.9501     -104.39046      0.97643628     49698.64       38           
     60000   302.12936      9922.1137     -2208.8871     -1246.1654      1824.1465      16951.736     -5303.6744     -95.042012      0.97670053     49685.194      38           
     60100   297.33639      9894.6265     -2228.1219     -1304.9058      1837.7787      17020.395     -5332.6699     -97.849594      0.97743165     49648.03       38           
     60200   296.06607      10005.523     -2235.5082     -1136.0121      1764.6243      16996.646     -5280.5849     -103.64208      0.97720045     49659.776      38           
     60300   290.6246       9986.2968     -2239.6839     -1111.0904      1850.3517      16891.932     -5310.1945     -95.017881      0.97652959     49693.891      38           
     60400   292.99175      9983.2293     -2253.8237     -1083.4944      1772.5676      16981.076     -5333.3061     -99.789773      0.97749025     49645.053      38           
     60500   300.62543      9852.4332     -2262.8019     -1175.2877      1798.6102      16891.145     -5303.7212     -95.511388      0.97791388     49623.547      38           
     60600   305.004        9936.2238     -2241.2985     -1064.1289      1796.1763      16786.179     -5242.5857     -98.118533      0.97814519     49611.812      38           
     60700   300.74026      9845.7656     -2290.1438     -1286.9318      1811.0126      16983.537     -5279.6247     -92.083651      0.97811454     49613.367      38           
     60800   301.30731      9832.43       -2255.4663     -1335.9718      1902.6675      16971.277     -5344.2027     -105.87397      0.97865729     49585.852      38           
     60900   297.63944      9895.8445     -2264.9989     -1258.9841      1805.7719      17034.379     -5321.3657     -98.957754      0.97832227     49602.832      38           
     61000   293.40047      9756.6058     -2225.2971     -1358.6393      1836.5503      16932.058     -5328.5237     -99.542861      0.97821485     49608.279      38           
     61100   299.45381      9685.0752     -2267.3427     -1338.3135      1858.1187      16808.526     -5281.9232     -93.989712      0.97929491     49553.566      38           
     61200   299.20208      9828.4656     -2262.0192     -1291.4501      1769.8875      17036.15      -5332.7328     -91.369537      0.98180706     49426.773      38           
     61300   302.85994      9847.6073     -2277.4044     -1314.5211      1835.628       16912.784     -5220.357      -88.522148      0.9826034      49386.716      38           
     61400   298.25364      9972.6862     -2265.7705     -1227.1595      1868.1468      17029.565     -5328.678      -103.41773      0.98230184     49401.877      38           
     61500   298.45056      9864.982      -2268.1924     -1249.2436      1822.5876      16973.125     -5314.5069     -98.787464      0.98259146     49387.317      38           
     61600   297.82759      9708.5525     -2265.2404     -1399.4053      1795.9569      16947.784     -5273.8378     -96.70459       0.98198966     49417.583      38           
     61700   304.68789      9614.1138     -2243.9839     -1404.0079      1798.4235      16919.69      -5358.4931     -97.514761      0.98274299     49379.701      38           
     61800   299.72671      9693.7732     -2228.9901     -1467.3546      1879.5897      16997.137     -5383.4065     -103.20232      0.98380937     49326.177      38           
     61900   304.66111      9844.1569     -2255.7117     -1329.2592      1892.5114      16990.927     -5349.3875     -104.92276      0.9828858      49372.527      38           
     62000   304.21053      9904.761      -2234.1751     -1213.6259      1816.2759      16855.994     -5219.2585     -100.44976      0.98280363     49376.655      38           
     62100   295.27323      9867.7193     -2245.8419     -1280.4002      1824.7398      16934.962     -5271.9188     -93.822093      0.98132404     49451.102      38           
     62200   299.68653      9770.3202     -2256.0256     -1271.276       1794.1446      16887.785     -5291.4193     -92.88838       0.98071019     49482.055      38           
     62300   299.24978      51365.099     -317.29959     -1285.6607      41404.773      16985.293     -5329.9617     -92.045091      0.98147799     49443.346      39           
     62400   298.2846       9863.5103     -2259.7713     -1127.6025      1818.4019      16894.127     -5358.5137     -103.1309       1.0130661      47901.667      39           
     62500   295.09146      27218.506      96.030008     -1202.0274      16928.05       16796.704     -5306.5049     -93.746175      1.0134445      47883.783      40           
     62600   296.40931      9485.9159     -2273.3258     -1266.4478      1751.4978      16679.375     -5309.8232     -95.359848      1.0187215      47635.744      40           
     62700   301.33278      9339.5942     -2311.0246     -1402.8478      1757.8149      16695.336     -5296.0874     -103.59686      1.015838       47770.957      40           
     62800   303.19094      188031.8      -771.65846     -1334.8642      178982.52      16577.403     -5329.2973     -92.298912      1.0111604      47991.945      41           
     62900   308.55277      9429.5794     -2323.7068     -1356.5998      1769.082       16746.273     -5312.2176     -93.251128      1.060782       45746.965      41           
     63000   304.00922      9352.0401     -2324.3277     -1356.9201      1767.3725      16616.508     -5244.4457     -106.14692      1.0564199      45935.858      41           
     63100   305.74725      9314.2768     -2322.9036     -1267.8784      1744.0279      16570.133     -5312.3606     -96.741609      1.0497438      46227.999      41           
     63200   297.16722      9416.0413     -2315.2794     -1216.799       1755.5578      16556.013     -5269.9409     -93.510187      1.0429989      46526.946      41           
     63300   297.8409       9334.1066     -2308.2365     -1259.7999      1710.1622      16622.199     -5328.3397     -101.87808      1.0356104      46858.894      41           
     63400   297.73621      9270.5383     -2291.3983     -1387.1401      1787.8322      16547.873     -5284.9547     -101.67412      1.0301391      47107.77       41           
     63500   301.72443      9261.5373     -2300.7151     -1439.7545      1758.6395      16646.778     -5318.099      -85.311537      1.0238286      47398.122      41           
     63600   304.46814      9297.4479     -2288.9957     -1402.9258      1791.7128      16630.442     -5340.309      -92.476291      1.0190586      47619.987      41           
     63700   295.32164      9449.1321     -2241.691      -1323.1338      1831.541       16614.679     -5338.0283     -94.234581      1.0133912      47886.299      41           
     63800   295.99727      9402.0399     -2276.5478     -1304.8615      1842.3995      16583.105     -5346.982      -95.072717      1.0081371      48135.869      41           
     63900   296.82063      9412.7721     -2252.3104     -1253.9566      1735.408       16613.464     -5331.9329     -97.900053      1.0044189      48314.061      41           
     64000   300.85369      9402.3627     -2252.4489     -1248.2752      1777.7913      16547.375     -5319.8069     -102.27233      1.001563       48451.826      41           
     64100   300.68092      9366.5459     -2281.9704     -1314.5935      1816.0604      16570.481     -5324.8186     -98.613018      0.9979611      48626.7        41           
     64200   303.30202      9372.3091     -2229.8629     -1310.2655      1772.3479      16558.675     -5320.3488     -98.23652       0.99581004     48731.739      41           
     64300   303.38467      9389.7887     -2267.7959     -1334.3202      1804.0761      16605.501     -5318.712      -98.960283      0.99236795     48900.768      41           
     64400   299.57901      9406.8379     -2246.3093     -1402.0898      1798.9167      16667.494     -5316.9583     -94.215745      0.99056355     48989.846      41           
     64500   302.70264      9398.9834     -2229.6155     -1317.8378      1767.7898      16557.637     -5285.6628     -93.327045      0.99036032     48999.898      41           
     64600   303.58165      9216.1516     -2273.6781     -1373.1684      1672.6864      16578.041     -5295.9033     -91.825598      0.98871618     49081.381      41           
     64700   298.68947      9394.917      -2279.1232     -1279.741       1796.1041      16568.35      -5307.0709     -103.60164      0.98773174     49130.298      41           
     64800   297.25117      9579.3549     -2226.8038     -1151.4638      1838.4974      16497.907     -5281.6395     -97.142085      0.987155       49159.003      41           
     64900   306.98603      9541.3043     -2264.6486     -1147.8073      1839.9894      16444.215     -5248.2768     -82.167347      0.9857975      49226.698      41           
     65000   308.39576      9367.9121     -2245.2076     -1362.1815      1794.4563      16509.605     -5240.3943     -88.365758      0.9858445      49224.35       41           
     65100   302.63821      9363.1358     -2292.2032     -1336.6974      1768.3906      16640.002     -5322.7283     -93.628362      0.98505636     49263.735      41           
     65200   299.18223      9438.3558     -2267.2728     -1252.934       1785.6953      16556.032     -5289.4236     -93.741601      0.98494698     49269.206      41           
     65300   295.7472       9529.1731     -2252.1503     -1218.1419      1817.7517      16590.493     -5316.3865     -92.392695      0.98421029     49306.084      41           
     65400   300.48133      113105.73      158.05961     -1284.3016      103110.56      16524.314     -5303.9057     -99.001063      0.98367746     49332.792      42           
     65500   302.07303      9400.6556     -2262.4033     -1235.7096      1777.1519      16617.278     -5408.2226     -87.438747      1.0245539      47364.572      42           
     65600   301.33878      9130.9153     -2328.5917     -1326.112       1718.0149      16435.914     -5274.7649     -93.544486      1.0230395      47434.683      42           
     65700   297.79086      52559.064      39.060409     -1274.2183      42806.034      16347.294     -5269.7264     -89.379466      1.0200077      47575.677      43           
     65800   303.19743      9064.4816     -2293.7309     -1295.8883      1735.3592      16368.232     -5355.8412     -93.648741      1.0358699      46847.153      43           
     65900   303.43548      9047.3156     -2285.8551     -1325.9053      1740.2397      16288.997     -5278.2232     -91.937938      1.0316185      47040.216      43           
     66000   298.04852      9216.3387     -2322.1963     -1186.5299      1784.3665      16354.529     -5318.4274     -95.403038      1.0257658      47308.613      43           
     66100   299.0519       9187.6023     -2288.3191     -1173.6517      1750.4576      16250.966     -5261.7882     -90.061662      1.021303       47515.336      43           
     66200   292.85711      9086.0876     -2311.401      -1300.4363      1751.3297      16366.844     -5328.1916     -92.057314      1.0163774      47745.606      43           
     66300   298.29543      9140.0571     -2270.8378     -1208.5987      1768.355       16253.312     -5311.7718     -90.401377      1.0116378      47969.3        43           
     66400   302.65327      9246.0922     -2249.3667     -1188.6302      1770.6758      16306.064     -5301.4187     -91.232179      1.006691       48205.014      43           
     66500   298.36136      9463.7197     -2271.8487     -1044.7827      1805.3512      16323.794     -5260.8012     -87.993284      1.002677       48397.995      43           
     66600   301.3758       9334.011      -2263.5921     -1175.2719      1750.0376      16418.034     -5299.5729     -95.623841      0.99889944     48581.022      43           
     66700   301.79122      9254.9452     -2232.8445     -1246.2742      1766.7325      16369.061     -5314.8929     -86.836565      0.99487472     48777.554      43           
     66800   300.27906      9105.9281     -2256.0155     -1326.4509      1705.5847      16401.384     -5320.3418     -98.232047      0.99220157     48908.969      43           
     66900   294.92314      9161.3845     -2256.185      -1256.6781      1770.7291      16357.934     -5367.068      -87.348095      0.99063815     48986.157      43           
     67000   295.61651      9189.2921     -2268.2165     -1224.774       1747.2616      16318.892     -5290.2673     -93.603563      0.98946134     49044.418      43           
     67100   301.92008      9088.4486     -2272.6053     -1336.4879      1722.103       16416.807     -5352.9004     -88.468153      0.98846742     49093.733      43           
     67200   301.1313       9318.2612     -2265.5812     -1158.1021      1721.1471      16409.529     -5291.989      -96.742357      0.98715796     49158.855      43           
     67300   300.72109      73759.366      127.29544     -1371.0775      64080.48       16324.847     -5308.1366     -94.04194       0.98395399     49318.927      44           
     67400   307.55107      8928.772      -2247.4933     -1345.2051      1713.8142      16251.891     -5357.9117     -86.322824      1.0162821      47750.084      44           
     67500   300.592        8885.4929     -2297.7458     -1384.8943      1758.4977      16224.798     -5326.6729     -88.48995       1.0143937      47838.976      44           
     67600   298.56936      8836.1851     -2273.7319     -1438.8004      1722.9909      16254.042     -5338.6687     -89.646768      1.0118705      47958.267      44           
     67700   297.98552      8941.8689     -2248.1682     -1368.0016      1778.381       16194.379     -5325.7068     -89.014681      1.0084183      48122.445      44           
     67800   298.83748      9079.3231     -2275.6094     -1293.6019      1795.1606      16301.577     -5359.8041     -88.399508      1.0048993      48290.961      44           
     67900   307.16164      8999.8207     -2253.9174     -1347.7569      1797.6578      16336.967     -5436.4407     -96.688804      1.0012261      48468.127      44           
     68000   299.49118      8988.3327     -2254.8822     -1435.5137      1780.8556      16349.86      -5357.8083     -94.178489      0.99863111     48594.075      44           
     68100   300.73881      9071.3926     -2275.7726     -1296.7739      1815.6167      16296.298     -5372.3207     -95.655221      0.99593957     48725.401      44           
     68200   301.7579       8940.0979     -2209.2741     -1397.0253      1731.9862      16262.752     -5353.2595     -95.081535      0.99330664     48854.556      44           
     68300   303.28414      8983.8035     -2254.1401     -1296.9358      1784.1982      16212.688     -5375.8936     -86.113323      0.9899468      49020.367      44           
     68400   296.79344      8943.8339     -2244.5131     -1407.3097      1772.2338      16213.327     -5295.9714     -93.932305      0.98790834     49121.516      44           
     68500   301.20807      9063.6427     -2248.1762     -1323.378       1864.7935      16181.125     -5322.5339     -88.187663      0.98581163     49225.992      44           
     68600   303.37039      9130.1644     -2231.3949     -1308.7718      1788.3609      16319.515     -5353.0182     -84.526088      0.98353491     49339.942      44           
     68700   303.66224      9025.5504     -2245.2972     -1316.3309      1765.7198      16234.349     -5324.6737     -88.216197      0.98203549     49415.277      44           
     68800   302.47131      8983.0263     -2253.3332     -1301.5145      1751.9653      16255.908     -5377.0948     -92.905035      0.9804837      49493.485      44           
     68900   298.09519      9112.962      -2236.4427     -1208.2661      1797.6808      16269.672     -5414.6981     -94.984376      0.98010791     49512.461      44           
     69000   298.27534      9104.627      -2241.1849     -1249.3609      1813.6079      16164.28      -5292.5957     -90.119322      0.97899321     49568.837      44           
     69100   302.20392      9019.3112     -2239.8577     -1413.0794      1799.4727      16268.459     -5308.0987     -87.58461       0.97831823     49603.037      44           
     69200   302.76816      9045.8699     -2203.9691     -1410.6465      1826.2283      16295.412     -5373.7361     -87.418491      0.97831194     49603.356      44           
     69300   298.13169      8984.3662     -2230.5323     -1442.8165      1801.6913      16299.052     -5345.7728     -97.255487      0.97643709     49698.599      44           
     69400   293.47037      9133.034      -2235.6352     -1306.8182      1807.2982      16256.476     -5294.7356     -93.55159       0.97578304     49731.911      44           
