LAMMPS (22 Dec 2022)
WARNING: Using I/O redirection is unreliable with parallel runs. Better to use the -in switch to read input files. (../lammps.cpp:531)
# PREREQUISITES:
#
#     You must use moltemplate.sh to create 3 files:
#        system.data  system.in.init  system.in.settings
#     (Follow the instructions in README_setup.sh,
#      or run the file as a script using ./README_setup.sh)

# ------------------------------- Initialization Section --------------------

units real
atom_style full
pair_style lj/class2/coul/cut 10.0
bond_style class2
angle_style class2
dihedral_style class2
improper_style class2


# ------------------------------- Atom Definition Section -------------------

read_data       "pre_mol.data" extra/bond/per/atom 1 extra/angle/per/atom 12 extra/dihedral/per/atom 12 extra/improper/per/atom 12 extra/special/per/atom 12
Reading data file ...
  orthogonal box = (0 0 0) to (93.650681 93.650681 93.650681)
  1 by 2 by 3 MPI processor grid
  reading atoms ...
  74 atoms
  scanning bonds ...
  5 = max bonds/atom
  scanning angles ...
  18 = max angles/atom
  scanning dihedrals ...
  30 = max dihedrals/atom
  scanning impropers ...
  16 = max impropers/atom
  reading bonds ...
  85 bonds
  reading angles ...
  186 angles
  reading dihedrals ...
  345 dihedrals
  reading impropers ...
  120 impropers
Finding 1-2 1-3 1-4 neighbors ...
  special bond factors lj:    0        0        0       
  special bond factors coul:  0        0        0       
     4 = max # of 1-2 neighbors
     9 = max # of 1-3 neighbors
    25 = max # of 1-4 neighbors
    34 = max # of special neighbors
  special bonds CPU = 0.001 seconds
  read_data CPU = 0.009 seconds

include calc.pram

# Masses

mass		1    12.01115  # c
mass		2    12.01115  # c1
mass		3    12.01115  # c3h
mass		4     1.00797  # h
mass		5     1.00797  # hc
mass		6    15.99940  # o3e
mass		7    15.99940  # oc
mass		8    15.99940  # oh

# Potentials

pair_coeff	 1  1    0.05400    4.01000  # c,c
pair_coeff	 2  2    0.05400    4.01000  # c1,c1
pair_coeff	 3  3    0.05400    4.01000  # c3h,c3h
pair_coeff	 4  4    0.02000    2.99500  # h,h
pair_coeff	 5  5    0.02000    2.99500  # hc,hc
pair_coeff	 6  6    0.24000    3.53500  # o3e,o3e
pair_coeff	 7  7    0.24000    3.53500  # oc,oc
pair_coeff	 8  8    0.24000    3.53500  # oh,oh

# Bond Coeffs

bond_coeff	 1    1.53000  299.67000 -501.77000  679.81000  # c,c
bond_coeff	 2    1.53000  299.67000 -501.77000  679.81000  # c,c1
bond_coeff	 3    1.53000  299.67000 -501.77000  679.81000  # c,c3h
bond_coeff	 4    1.10100  345.00000 -691.89000  844.60000  # c,hc
bond_coeff	 5    1.53000  299.67000 -501.77000  679.81000  # c1,c1
bond_coeff	 6    1.53000  299.67000 -501.77000  679.81000  # c1,c3h
bond_coeff	 7    1.10100  345.00000 -691.89000  844.60000  # c1,hc
bond_coeff	 8    1.42000  400.39540 -835.19510 1313.01420  # c1,o3e
bond_coeff	 9    1.42000  400.39540 -835.19510 1313.01420  # c1,oc
bond_coeff	10    1.42000  400.39540 -835.19510 1313.01420  # c1,oh
bond_coeff	11    1.53000  299.67000 -501.77000  679.81000  # c3h,c3h
bond_coeff	12    1.10100  345.00000 -691.89000  844.60000  # c3h,hc
bond_coeff	13    1.42000  400.39540 -835.19510 1313.01420  # c3h,o3e
bond_coeff	14    0.96000  493.84800    0.00000    0.00000  # h,oh

# Angle Coeffs

angle_coeff	 1  112.67000   39.51600   -7.44300   -9.55830  # c,c,c1
angle_coeff	 2  110.77000   41.45300  -10.60400    5.12900  # c,c,hc
angle_coeff	 3  112.67000   39.51600   -7.44300   -9.55830  # c,c1,c
angle_coeff	 4  112.67000   39.51600   -7.44300   -9.55830  # c,c1,c1
angle_coeff	 5  110.77000   41.45300  -10.60400    5.12900  # c,c1,hc
angle_coeff	 6  111.27000   54.53810   -8.36420  -13.08380  # c,c1,o3e
angle_coeff	 7  111.27000   54.53810   -8.36420  -13.08380  # c,c1,oc
angle_coeff	 8  112.67000   39.51600   -7.44300   -9.55830  # c,c3h,c3h
angle_coeff	 9  110.77000   41.45300  -10.60400    5.12900  # c,c3h,hc
angle_coeff	10  111.27000   54.53810   -8.36420  -13.08380  # c,c3h,o3e
angle_coeff	11  112.67000   39.51600   -7.44300   -9.55830  # c1,c,c1
angle_coeff	12  112.67000   39.51600   -7.44300   -9.55830  # c1,c,c3h
angle_coeff	13  110.77000   41.45300  -10.60400    5.12900  # c1,c,hc
angle_coeff	14  112.67000   39.51600   -7.44300   -9.55830  # c1,c1,c1
angle_coeff	15  112.67000   39.51600   -7.44300   -9.55830  # c1,c1,c3h
angle_coeff	16  110.77000   41.45300  -10.60400    5.12900  # c1,c1,hc
angle_coeff	17  111.27000   54.53810   -8.36420  -13.08380  # c1,c1,o3e
angle_coeff	18  111.27000   54.53810   -8.36420  -13.08380  # c1,c1,oc
angle_coeff	19  111.27000   54.53810   -8.36420  -13.08380  # c1,c1,oh
angle_coeff	20  112.67000   39.51600   -7.44300   -9.55830  # c1,c3h,c3h
angle_coeff	21  110.77000   41.45300  -10.60400    5.12900  # c1,c3h,hc
angle_coeff	22  111.27000   54.53810   -8.36420  -13.08380  # c1,c3h,o3e
angle_coeff	23  104.50000   35.74540  -10.00670   -6.27290  # c1,o3e,c1
angle_coeff	24  104.50000   35.74540  -10.00670   -6.27290  # c1,oc,c1
angle_coeff	25  109.00000   58.50000    0.00000    0.00000  # c1,oh,h
angle_coeff	26  110.77000   41.45300  -10.60400    5.12900  # c3h,c,hc
angle_coeff	27  110.77000   41.45300  -10.60400    5.12900  # c3h,c1,hc
angle_coeff	28  110.77000   41.45300  -10.60400    5.12900  # c3h,c3h,hc
angle_coeff	29  111.27000   54.53810   -8.36420  -13.08380  # c3h,c3h,o3e
angle_coeff	30  104.50000   35.74540  -10.00670   -6.27290  # c3h,o3e,c3h
angle_coeff	31  107.66000   39.64100  -12.92100   -2.43180  # hc,c,hc
angle_coeff	32  108.72800   58.54460  -10.80880  -12.40060  # hc,c1,o3e
angle_coeff	33  108.72800   58.54460  -10.80880  -12.40060  # hc,c1,oc
angle_coeff	34  108.72800   58.54460  -10.80880  -12.40060  # hc,c1,oh
angle_coeff	35  108.72800   58.54460  -10.80880  -12.40060  # hc,c3h,o3e

# BondBond Coeffs

angle_coeff	 1 bb    0.00000    1.53000    1.53000  # c,c,c1
angle_coeff	 2 bb    3.38720    1.53000    1.10100  # c,c,hc
angle_coeff	 3 bb    0.00000    1.53000    1.53000  # c,c1,c
angle_coeff	 4 bb    0.00000    1.53000    1.53000  # c,c1,c1
angle_coeff	 5 bb    3.38720    1.53000    1.10100  # c,c1,hc
angle_coeff	 6 bb   11.43180    1.53000    1.42000  # c,c1,o3e
angle_coeff	 7 bb   11.43180    1.53000    1.42000  # c,c1,oc
angle_coeff	 8 bb    0.00000    1.53000    1.53000  # c,c3h,c3h
angle_coeff	 9 bb    3.38720    1.53000    1.10100  # c,c3h,hc
angle_coeff	10 bb   11.43180    1.53000    1.42000  # c,c3h,o3e
angle_coeff	11 bb    0.00000    1.53000    1.53000  # c1,c,c1
angle_coeff	12 bb    0.00000    1.53000    1.53000  # c1,c,c3h
angle_coeff	13 bb    3.38720    1.53000    1.10100  # c1,c,hc
angle_coeff	14 bb    0.00000    1.53000    1.53000  # c1,c1,c1
angle_coeff	15 bb    0.00000    1.53000    1.53000  # c1,c1,c3h
angle_coeff	16 bb    3.38720    1.53000    1.10100  # c1,c1,hc
angle_coeff	17 bb   11.43180    1.53000    1.42000  # c1,c1,o3e
angle_coeff	18 bb   11.43180    1.53000    1.42000  # c1,c1,oc
angle_coeff	19 bb   11.43180    1.53000    1.42000  # c1,c1,oh
angle_coeff	20 bb    0.00000    1.53000    1.53000  # c1,c3h,c3h
angle_coeff	21 bb    3.38720    1.53000    1.10100  # c1,c3h,hc
angle_coeff	22 bb   11.43180    1.53000    1.42000  # c1,c3h,o3e
angle_coeff	23 bb   -7.11310    1.42000    1.42000  # c1,o3e,c1
angle_coeff	24 bb   -7.11310    1.42000    1.42000  # c1,oc,c1
angle_coeff	25 bb    0.00000    1.42000    0.96000  # c1,oh,h
angle_coeff	26 bb    3.38720    1.53000    1.10100  # c3h,c,hc
angle_coeff	27 bb    3.38720    1.53000    1.10100  # c3h,c1,hc
angle_coeff	28 bb    3.38720    1.53000    1.10100  # c3h,c3h,hc
angle_coeff	29 bb   11.43180    1.53000    1.42000  # c3h,c3h,o3e
angle_coeff	30 bb   -7.11310    1.42000    1.42000  # c3h,o3e,c3h
angle_coeff	31 bb    5.33160    1.10100    1.10100  # hc,c,hc
angle_coeff	32 bb   23.19790    1.10100    1.42000  # hc,c1,o3e
angle_coeff	33 bb   23.19790    1.10100    1.42000  # hc,c1,oc
angle_coeff	34 bb   23.19790    1.10100    1.42000  # hc,c1,oh
angle_coeff	35 bb   23.19790    1.10100    1.42000  # hc,c3h,o3e

# BondAngle Coeffs

angle_coeff	 1 ba    8.01600    8.01600    1.53000    1.53000  # c,c,c1
angle_coeff	 2 ba   11.42100   20.75400    1.53000    1.10100  # c,c,hc
angle_coeff	 3 ba    8.01600    8.01600    1.53000    1.53000  # c,c1,c
angle_coeff	 4 ba    8.01600    8.01600    1.53000    1.53000  # c,c1,c1
angle_coeff	 5 ba   11.42100   20.75400    1.53000    1.10100  # c,c1,hc
angle_coeff	 6 ba    2.68680   20.40330    1.53000    1.42000  # c,c1,o3e
angle_coeff	 7 ba   20.40330    2.68680    1.53000    1.42000  # c,c1,oc
angle_coeff	 8 ba    8.01600    8.01600    1.53000    1.53000  # c,c3h,c3h
angle_coeff	 9 ba   11.42100   20.75400    1.53000    1.10100  # c,c3h,hc
angle_coeff	10 ba    2.68680   20.40330    1.53000    1.42000  # c,c3h,o3e
angle_coeff	11 ba    8.01600    8.01600    1.53000    1.53000  # c1,c,c1
angle_coeff	12 ba    8.01600    8.01600    1.53000    1.53000  # c1,c,c3h
angle_coeff	13 ba   20.75400   11.42100    1.53000    1.10100  # c1,c,hc
angle_coeff	14 ba    8.01600    8.01600    1.53000    1.53000  # c1,c1,c1
angle_coeff	15 ba    8.01600    8.01600    1.53000    1.53000  # c1,c1,c3h
angle_coeff	16 ba   20.75400   11.42100    1.53000    1.10100  # c1,c1,hc
angle_coeff	17 ba    2.68680   20.40330    1.53000    1.42000  # c1,c1,o3e
angle_coeff	18 ba    2.68680   20.40330    1.53000    1.42000  # c1,c1,oc
angle_coeff	19 ba   20.40330    2.68680    1.53000    1.42000  # c1,c1,oh
angle_coeff	20 ba    8.01600    8.01600    1.53000    1.53000  # c1,c3h,c3h
angle_coeff	21 ba   20.75400   11.42100    1.53000    1.10100  # c1,c3h,hc
angle_coeff	22 ba    2.68680   20.40330    1.53000    1.42000  # c1,c3h,o3e
angle_coeff	23 ba   -2.81120   -2.81120    1.42000    1.42000  # c1,o3e,c1
angle_coeff	24 ba   -2.81120   -2.81120    1.42000    1.42000  # c1,oc,c1
angle_coeff	25 ba    0.00000    0.00000    1.42000    0.96000  # c1,oh,h
angle_coeff	26 ba   11.42100   20.75400    1.53000    1.10100  # c3h,c,hc
angle_coeff	27 ba   11.42100   20.75400    1.53000    1.10100  # c3h,c1,hc
angle_coeff	28 ba   11.42100   20.75400    1.53000    1.10100  # c3h,c3h,hc
angle_coeff	29 ba   20.40330    2.68680    1.53000    1.42000  # c3h,c3h,o3e
angle_coeff	30 ba   -2.81120   -2.81120    1.42000    1.42000  # c3h,o3e,c3h
angle_coeff	31 ba   18.10300   18.10300    1.10100    1.10100  # hc,c,hc
angle_coeff	32 ba    4.61890   55.32700    1.10100    1.42000  # hc,c1,o3e
angle_coeff	33 ba    4.61890   55.32700    1.10100    1.42000  # hc,c1,oc
angle_coeff	34 ba   55.32700    4.61890    1.10100    1.42000  # hc,c1,oh
angle_coeff	35 ba    4.61890   55.32700    1.10100    1.42000  # hc,c3h,o3e

# Dihedral Coeffs

dihedral_coeff	 1    0.00000    0.00000    0.05140    0.00000   -0.14300    0.00000  # c,c,c1,c1
dihedral_coeff	 2    0.00000    0.00000    0.03160    0.00000   -0.16810    0.00000  # c,c,c1,hc
dihedral_coeff	 3    0.71370    0.00000    0.26600    0.00000   -0.25450    0.00000  # c,c,c1,oc
dihedral_coeff	 4    0.00000    0.00000    0.05140    0.00000   -0.14300    0.00000  # c,c1,c,c1
dihedral_coeff	 5    0.00000    0.00000    0.03160    0.00000   -0.16810    0.00000  # c,c1,c,hc
dihedral_coeff	 6    0.00000    0.00000    0.05140    0.00000   -0.14300    0.00000  # c,c1,c1,c
dihedral_coeff	 7    0.00000    0.00000    0.05140    0.00000   -0.14300    0.00000  # c,c1,c1,c1
dihedral_coeff	 8    0.00000    0.00000    0.05140    0.00000   -0.14300    0.00000  # c,c1,c1,c3h
dihedral_coeff	 9    0.00000    0.00000    0.03160    0.00000   -0.16810    0.00000  # c,c1,c1,hc
dihedral_coeff	10    0.71370    0.00000    0.26600    0.00000   -0.25450    0.00000  # c,c1,c1,o3e
dihedral_coeff	11    0.71370    0.00000    0.26600    0.00000   -0.25450    0.00000  # c,c1,c1,oc
dihedral_coeff	12    0.71370    0.00000    0.26600    0.00000   -0.25450    0.00000  # c,c1,c1,oh
dihedral_coeff	13   -0.52030    0.00000   -0.30280    0.00000   -0.34500    0.00000  # c,c1,o3e,c1
dihedral_coeff	14   -0.52030    0.00000   -0.30280    0.00000   -0.34500    0.00000  # c,c1,oc,c1
dihedral_coeff	15    0.00000    0.00000    0.05140    0.00000   -0.14300    0.00000  # c,c3h,c3h,c1
dihedral_coeff	16    0.00000    0.00000    0.03160    0.00000   -0.16810    0.00000  # c,c3h,c3h,hc
dihedral_coeff	17    0.71370    0.00000    0.26600    0.00000   -0.25450    0.00000  # c,c3h,c3h,o3e
dihedral_coeff	18   -0.52030    0.00000   -0.30280    0.00000   -0.34500    0.00000  # c,c3h,o3e,c3h
dihedral_coeff	19    0.00000    0.00000    0.05140    0.00000   -0.14300    0.00000  # c1,c,c,c1
dihedral_coeff	20    0.00000    0.00000    0.03160    0.00000   -0.16810    0.00000  # c1,c,c,hc
dihedral_coeff	21    0.00000    0.00000    0.05140    0.00000   -0.14300    0.00000  # c1,c,c1,c1
dihedral_coeff	22    0.00000    0.00000    0.03160    0.00000   -0.16810    0.00000  # c1,c,c1,hc
dihedral_coeff	23    0.71370    0.00000    0.26600    0.00000   -0.25450    0.00000  # c1,c,c1,o3e
dihedral_coeff	24    0.71370    0.00000    0.26600    0.00000   -0.25450    0.00000  # c1,c,c1,oc
dihedral_coeff	25    0.00000    0.00000    0.05140    0.00000   -0.14300    0.00000  # c1,c,c3h,c3h
dihedral_coeff	26    0.00000    0.00000    0.03160    0.00000   -0.16810    0.00000  # c1,c,c3h,hc
dihedral_coeff	27    0.71370    0.00000    0.26600    0.00000   -0.25450    0.00000  # c1,c,c3h,o3e
dihedral_coeff	28    0.00000    0.00000    0.05140    0.00000   -0.14300    0.00000  # c1,c1,c,c3h
dihedral_coeff	29    0.00000    0.00000    0.03160    0.00000   -0.16810    0.00000  # c1,c1,c,hc
dihedral_coeff	30    0.00000    0.00000    0.05140    0.00000   -0.14300    0.00000  # c1,c1,c1,c1
dihedral_coeff	31    0.00000    0.00000    0.05140    0.00000   -0.14300    0.00000  # c1,c1,c1,c3h
dihedral_coeff	32    0.00000    0.00000    0.03160    0.00000   -0.16810    0.00000  # c1,c1,c1,hc
dihedral_coeff	33    0.71370    0.00000    0.26600    0.00000   -0.25450    0.00000  # c1,c1,c1,o3e
dihedral_coeff	34    0.71370    0.00000    0.26600    0.00000   -0.25450    0.00000  # c1,c1,c1,oc
dihedral_coeff	35    0.71370    0.00000    0.26600    0.00000   -0.25450    0.00000  # c1,c1,c1,oh
dihedral_coeff	36    0.00000    0.00000    0.05140    0.00000   -0.14300    0.00000  # c1,c1,c3h,c3h
dihedral_coeff	37    0.00000    0.00000    0.03160    0.00000   -0.16810    0.00000  # c1,c1,c3h,hc
dihedral_coeff	38    0.71370    0.00000    0.26600    0.00000   -0.25450    0.00000  # c1,c1,c3h,o3e
dihedral_coeff	39   -0.52030    0.00000   -0.30280    0.00000   -0.34500    0.00000  # c1,c1,o3e,c1
dihedral_coeff	40   -0.52030    0.00000   -0.30280    0.00000   -0.34500    0.00000  # c1,c1,oc,c1
dihedral_coeff	41    0.00000    0.00000    0.00000    0.00000    0.13000  180.00000  # c1,c1,oh,h
dihedral_coeff	42    0.00000    0.00000    0.03160    0.00000   -0.16810    0.00000  # c1,c3h,c3h,hc
dihedral_coeff	43    0.71370    0.00000    0.26600    0.00000   -0.25450    0.00000  # c1,c3h,c3h,o3e
dihedral_coeff	44   -0.52030    0.00000   -0.30280    0.00000   -0.34500    0.00000  # c1,c3h,o3e,c3h
dihedral_coeff	45    0.53020    0.00000    0.00000    0.00000   -0.39660    0.00000  # c1,o3e,c1,hc
dihedral_coeff	46    0.53020    0.00000    0.00000    0.00000   -0.39660    0.00000  # c1,oc,c1,hc
dihedral_coeff	47    0.00000    0.00000    0.03160    0.00000   -0.16810    0.00000  # c3h,c,c1,hc
dihedral_coeff	48    0.00000    0.00000    0.03160    0.00000   -0.16810    0.00000  # c3h,c1,c1,hc
dihedral_coeff	49    0.00000    0.00000    0.03160    0.00000   -0.16810    0.00000  # c3h,c3h,c,hc
dihedral_coeff	50    0.00000    0.00000    0.03160    0.00000   -0.16810    0.00000  # c3h,c3h,c1,hc
dihedral_coeff	51    0.53020    0.00000    0.00000    0.00000   -0.39660    0.00000  # c3h,o3e,c3h,hc
dihedral_coeff	52    0.00000    0.00000    0.00000    0.00000    0.13000  180.00000  # h,oh,c1,hc
dihedral_coeff	53   -0.14320    0.00000    0.06170    0.00000   -0.10830    0.00000  # hc,c,c,hc
dihedral_coeff	54   -0.14320    0.00000    0.06170    0.00000   -0.10830    0.00000  # hc,c,c1,hc
dihedral_coeff	55   -0.14350    0.00000    0.25300    0.00000   -0.09050    0.00000  # hc,c,c1,o3e
dihedral_coeff	56   -0.14350    0.00000    0.25300    0.00000   -0.09050    0.00000  # hc,c,c1,oc
dihedral_coeff	57   -0.14320    0.00000    0.06170    0.00000   -0.10830    0.00000  # hc,c,c3h,hc
dihedral_coeff	58   -0.14350    0.00000    0.25300    0.00000   -0.09050    0.00000  # hc,c,c3h,o3e
dihedral_coeff	59   -0.14320    0.00000    0.06170    0.00000   -0.10830    0.00000  # hc,c1,c1,hc
dihedral_coeff	60   -0.14350    0.00000    0.25300    0.00000   -0.09050    0.00000  # hc,c1,c1,o3e
dihedral_coeff	61   -0.14350    0.00000    0.25300    0.00000   -0.09050    0.00000  # hc,c1,c1,oc
dihedral_coeff	62   -0.14350    0.00000    0.25300    0.00000   -0.09050    0.00000  # hc,c1,c1,oh
dihedral_coeff	63   -0.14320    0.00000    0.06170    0.00000   -0.10830    0.00000  # hc,c1,c3h,hc
dihedral_coeff	64   -0.14350    0.00000    0.25300    0.00000   -0.09050    0.00000  # hc,c1,c3h,o3e
dihedral_coeff	65   -0.14320    0.00000    0.06170    0.00000   -0.10830    0.00000  # hc,c3h,c3h,hc
dihedral_coeff	66   -0.14350    0.00000    0.25300    0.00000   -0.09050    0.00000  # hc,c3h,c3h,o3e
dihedral_coeff	67   -0.18200    0.00000   -0.10840    0.00000   -0.70470    0.00000  # oc,c1,c1,oc
dihedral_coeff	68   -0.18200    0.00000   -0.10840    0.00000   -0.70470    0.00000  # oc,c1,c1,oh

# MiddleBondTorsion Coeffs

dihedral_coeff	 1 mbt  -17.78700   -7.18770    0.00000    1.53000  # c,c,c1,c1
dihedral_coeff	 2 mbt  -14.87900   -3.65810   -0.31380    1.53000  # c,c,c1,hc
dihedral_coeff	 3 mbt  -21.88420   -7.67640   -0.68680    1.53000  # c,c,c1,oc
dihedral_coeff	 4 mbt  -17.78700   -7.18770    0.00000    1.53000  # c,c1,c,c1
dihedral_coeff	 5 mbt  -14.87900   -3.65810   -0.31380    1.53000  # c,c1,c,hc
dihedral_coeff	 6 mbt  -17.78700   -7.18770    0.00000    1.53000  # c,c1,c1,c
dihedral_coeff	 7 mbt  -17.78700   -7.18770    0.00000    1.53000  # c,c1,c1,c1
dihedral_coeff	 8 mbt  -17.78700   -7.18770    0.00000    1.53000  # c,c1,c1,c3h
dihedral_coeff	 9 mbt  -14.87900   -3.65810   -0.31380    1.53000  # c,c1,c1,hc
dihedral_coeff	10 mbt  -21.88420   -7.67640   -0.68680    1.53000  # c,c1,c1,o3e
dihedral_coeff	11 mbt  -21.88420   -7.67640   -0.68680    1.53000  # c,c1,c1,oc
dihedral_coeff	12 mbt  -21.88420   -7.67640   -0.68680    1.53000  # c,c1,c1,oh
dihedral_coeff	13 mbt   -5.92880   -2.70070   -0.31750    1.42000  # c,c1,o3e,c1
dihedral_coeff	14 mbt   -5.92880   -2.70070   -0.31750    1.42000  # c,c1,oc,c1
dihedral_coeff	15 mbt  -17.78700   -7.18770    0.00000    1.53000  # c,c3h,c3h,c1
dihedral_coeff	16 mbt  -14.87900   -3.65810   -0.31380    1.53000  # c,c3h,c3h,hc
dihedral_coeff	17 mbt  -21.88420   -7.67640   -0.68680    1.53000  # c,c3h,c3h,o3e
dihedral_coeff	18 mbt   -5.92880   -2.70070   -0.31750    1.42000  # c,c3h,o3e,c3h
dihedral_coeff	19 mbt  -17.78700   -7.18770    0.00000    1.53000  # c1,c,c,c1
dihedral_coeff	20 mbt  -14.87900   -3.65810   -0.31380    1.53000  # c1,c,c,hc
dihedral_coeff	21 mbt  -17.78700   -7.18770    0.00000    1.53000  # c1,c,c1,c1
dihedral_coeff	22 mbt  -14.87900   -3.65810   -0.31380    1.53000  # c1,c,c1,hc
dihedral_coeff	23 mbt  -21.88420   -7.67640   -0.68680    1.53000  # c1,c,c1,o3e
dihedral_coeff	24 mbt  -21.88420   -7.67640   -0.68680    1.53000  # c1,c,c1,oc
dihedral_coeff	25 mbt  -17.78700   -7.18770    0.00000    1.53000  # c1,c,c3h,c3h
dihedral_coeff	26 mbt  -14.87900   -3.65810   -0.31380    1.53000  # c1,c,c3h,hc
dihedral_coeff	27 mbt  -21.88420   -7.67640   -0.68680    1.53000  # c1,c,c3h,o3e
dihedral_coeff	28 mbt  -17.78700   -7.18770    0.00000    1.53000  # c1,c1,c,c3h
dihedral_coeff	29 mbt  -14.87900   -3.65810   -0.31380    1.53000  # c1,c1,c,hc
dihedral_coeff	30 mbt  -17.78700   -7.18770    0.00000    1.53000  # c1,c1,c1,c1
dihedral_coeff	31 mbt  -17.78700   -7.18770    0.00000    1.53000  # c1,c1,c1,c3h
dihedral_coeff	32 mbt  -14.87900   -3.65810   -0.31380    1.53000  # c1,c1,c1,hc
dihedral_coeff	33 mbt  -21.88420   -7.67640   -0.68680    1.53000  # c1,c1,c1,o3e
dihedral_coeff	34 mbt  -21.88420   -7.67640   -0.68680    1.53000  # c1,c1,c1,oc
dihedral_coeff	35 mbt  -21.88420   -7.67640   -0.68680    1.53000  # c1,c1,c1,oh
dihedral_coeff	36 mbt  -17.78700   -7.18770    0.00000    1.53000  # c1,c1,c3h,c3h
dihedral_coeff	37 mbt  -14.87900   -3.65810   -0.31380    1.53000  # c1,c1,c3h,hc
dihedral_coeff	38 mbt  -21.88420   -7.67640   -0.68680    1.53000  # c1,c1,c3h,o3e
dihedral_coeff	39 mbt   -5.92880   -2.70070   -0.31750    1.42000  # c1,c1,o3e,c1
dihedral_coeff	40 mbt   -5.92880   -2.70070   -0.31750    1.42000  # c1,c1,oc,c1
dihedral_coeff	41 mbt    0.00000    0.00000    0.00000    1.42000  # c1,c1,oh,h
dihedral_coeff	42 mbt  -14.87900   -3.65810   -0.31380    1.53000  # c1,c3h,c3h,hc
dihedral_coeff	43 mbt  -21.88420   -7.67640   -0.68680    1.53000  # c1,c3h,c3h,o3e
dihedral_coeff	44 mbt   -5.92880   -2.70070   -0.31750    1.42000  # c1,c3h,o3e,c3h
dihedral_coeff	45 mbt   -6.80070   -4.65460   -1.41010    1.42000  # c1,o3e,c1,hc
dihedral_coeff	46 mbt   -6.80070   -4.65460   -1.41010    1.42000  # c1,oc,c1,hc
dihedral_coeff	47 mbt  -14.87900   -3.65810   -0.31380    1.53000  # c3h,c,c1,hc
dihedral_coeff	48 mbt  -14.87900   -3.65810   -0.31380    1.53000  # c3h,c1,c1,hc
dihedral_coeff	49 mbt  -14.87900   -3.65810   -0.31380    1.53000  # c3h,c3h,c,hc
dihedral_coeff	50 mbt  -14.87900   -3.65810   -0.31380    1.53000  # c3h,c3h,c1,hc
dihedral_coeff	51 mbt   -6.80070   -4.65460   -1.41010    1.42000  # c3h,o3e,c3h,hc
dihedral_coeff	52 mbt    0.00000    0.00000    0.00000    1.42000  # h,oh,c1,hc
dihedral_coeff	53 mbt  -14.26100   -0.53220   -0.48640    1.53000  # hc,c,c,hc
dihedral_coeff	54 mbt  -14.26100   -0.53220   -0.48640    1.53000  # hc,c,c1,hc
dihedral_coeff	55 mbt  -16.79750   -1.22960   -0.27500    1.53000  # hc,c,c1,o3e
dihedral_coeff	56 mbt  -16.79750   -1.22960   -0.27500    1.53000  # hc,c,c1,oc
dihedral_coeff	57 mbt  -14.26100   -0.53220   -0.48640    1.53000  # hc,c,c3h,hc
dihedral_coeff	58 mbt  -16.79750   -1.22960   -0.27500    1.53000  # hc,c,c3h,o3e
dihedral_coeff	59 mbt  -14.26100   -0.53220   -0.48640    1.53000  # hc,c1,c1,hc
dihedral_coeff	60 mbt  -16.79750   -1.22960   -0.27500    1.53000  # hc,c1,c1,o3e
dihedral_coeff	61 mbt  -16.79750   -1.22960   -0.27500    1.53000  # hc,c1,c1,oc
dihedral_coeff	62 mbt  -16.79750   -1.22960   -0.27500    1.53000  # hc,c1,c1,oh
dihedral_coeff	63 mbt  -14.26100   -0.53220   -0.48640    1.53000  # hc,c1,c3h,hc
dihedral_coeff	64 mbt  -16.79750   -1.22960   -0.27500    1.53000  # hc,c1,c3h,o3e
dihedral_coeff	65 mbt  -14.26100   -0.53220   -0.48640    1.53000  # hc,c3h,c3h,hc
dihedral_coeff	66 mbt  -16.79750   -1.22960   -0.27500    1.53000  # hc,c3h,c3h,o3e
dihedral_coeff	67 mbt  -17.25850   -3.61570   -0.83640    1.53000  # oc,c1,c1,oc
dihedral_coeff	68 mbt  -17.25850   -3.61570   -0.83640    1.53000  # oc,c1,c1,oh

# EndBondTorsion Coeffs

dihedral_coeff	 1 ebt   -0.07320    0.00000    0.00000   -0.07320    0.00000    0.00000    1.53000    1.53000  # c,c,c1,c1
dihedral_coeff	 2 ebt    0.08140    0.05910    0.22190    0.24860    0.24220   -0.09250    1.53000    1.10100  # c,c,c1,hc
dihedral_coeff	 3 ebt    1.15380    0.84090   -0.91380   -0.31900    0.44110   -0.71740    1.53000    1.42000  # c,c,c1,oc
dihedral_coeff	 4 ebt   -0.07320    0.00000    0.00000   -0.07320    0.00000    0.00000    1.53000    1.53000  # c,c1,c,c1
dihedral_coeff	 5 ebt    0.08140    0.05910    0.22190    0.24860    0.24220   -0.09250    1.53000    1.10100  # c,c1,c,hc
dihedral_coeff	 6 ebt   -0.07320    0.00000    0.00000   -0.07320    0.00000    0.00000    1.53000    1.53000  # c,c1,c1,c
dihedral_coeff	 7 ebt   -0.07320    0.00000    0.00000   -0.07320    0.00000    0.00000    1.53000    1.53000  # c,c1,c1,c1
dihedral_coeff	 8 ebt   -0.07320    0.00000    0.00000   -0.07320    0.00000    0.00000    1.53000    1.53000  # c,c1,c1,c3h
dihedral_coeff	 9 ebt    0.08140    0.05910    0.22190    0.24860    0.24220   -0.09250    1.53000    1.10100  # c,c1,c1,hc
dihedral_coeff	10 ebt   -0.31900    0.44110   -0.71740    1.15380    0.84090   -0.91380    1.53000    1.42000  # c,c1,c1,o3e
dihedral_coeff	11 ebt    1.15380    0.84090   -0.91380   -0.31900    0.44110   -0.71740    1.53000    1.42000  # c,c1,c1,oc
dihedral_coeff	12 ebt    1.15380    0.84090   -0.91380   -0.31900    0.44110   -0.71740    1.53000    1.42000  # c,c1,c1,oh
dihedral_coeff	13 ebt    0.47410    1.26350    0.55760   -0.24560    1.05170   -0.77950    1.53000    1.42000  # c,c1,o3e,c1
dihedral_coeff	14 ebt    0.47410    1.26350    0.55760   -0.24560    1.05170   -0.77950    1.53000    1.42000  # c,c1,oc,c1
dihedral_coeff	15 ebt   -0.07320    0.00000    0.00000   -0.07320    0.00000    0.00000    1.53000    1.53000  # c,c3h,c3h,c1
dihedral_coeff	16 ebt    0.08140    0.05910    0.22190    0.24860    0.24220   -0.09250    1.53000    1.10100  # c,c3h,c3h,hc
dihedral_coeff	17 ebt   -0.31900    0.44110   -0.71740    1.15380    0.84090   -0.91380    1.53000    1.42000  # c,c3h,c3h,o3e
dihedral_coeff	18 ebt   -0.24560    1.05170   -0.77950    0.47410    1.26350    0.55760    1.53000    1.42000  # c,c3h,o3e,c3h
dihedral_coeff	19 ebt   -0.07320    0.00000    0.00000   -0.07320    0.00000    0.00000    1.53000    1.53000  # c1,c,c,c1
dihedral_coeff	20 ebt    0.24860    0.24220   -0.09250    0.08140    0.05910    0.22190    1.53000    1.10100  # c1,c,c,hc
dihedral_coeff	21 ebt   -0.07320    0.00000    0.00000   -0.07320    0.00000    0.00000    1.53000    1.53000  # c1,c,c1,c1
dihedral_coeff	22 ebt    0.24860    0.24220   -0.09250    0.08140    0.05910    0.22190    1.53000    1.10100  # c1,c,c1,hc
dihedral_coeff	23 ebt   -0.31900    0.44110   -0.71740    1.15380    0.84090   -0.91380    1.53000    1.42000  # c1,c,c1,o3e
dihedral_coeff	24 ebt   -0.31900    0.44110   -0.71740    1.15380    0.84090   -0.91380    1.53000    1.42000  # c1,c,c1,oc
dihedral_coeff	25 ebt   -0.07320    0.00000    0.00000   -0.07320    0.00000    0.00000    1.53000    1.53000  # c1,c,c3h,c3h
dihedral_coeff	26 ebt    0.24860    0.24220   -0.09250    0.08140    0.05910    0.22190    1.53000    1.10100  # c1,c,c3h,hc
dihedral_coeff	27 ebt   -0.31900    0.44110   -0.71740    1.15380    0.84090   -0.91380    1.53000    1.42000  # c1,c,c3h,o3e
dihedral_coeff	28 ebt   -0.07320    0.00000    0.00000   -0.07320    0.00000    0.00000    1.53000    1.53000  # c1,c1,c,c3h
dihedral_coeff	29 ebt    0.24860    0.24220   -0.09250    0.08140    0.05910    0.22190    1.53000    1.10100  # c1,c1,c,hc
dihedral_coeff	30 ebt   -0.07320    0.00000    0.00000   -0.07320    0.00000    0.00000    1.53000    1.53000  # c1,c1,c1,c1
dihedral_coeff	31 ebt   -0.07320    0.00000    0.00000   -0.07320    0.00000    0.00000    1.53000    1.53000  # c1,c1,c1,c3h
dihedral_coeff	32 ebt    0.24860    0.24220   -0.09250    0.08140    0.05910    0.22190    1.53000    1.10100  # c1,c1,c1,hc
dihedral_coeff	33 ebt   -0.31900    0.44110   -0.71740    1.15380    0.84090   -0.91380    1.53000    1.42000  # c1,c1,c1,o3e
dihedral_coeff	34 ebt   -0.31900    0.44110   -0.71740    1.15380    0.84090   -0.91380    1.53000    1.42000  # c1,c1,c1,oc
dihedral_coeff	35 ebt    1.15380    0.84090   -0.91380   -0.31900    0.44110   -0.71740    1.53000    1.42000  # c1,c1,c1,oh
dihedral_coeff	36 ebt   -0.07320    0.00000    0.00000   -0.07320    0.00000    0.00000    1.53000    1.53000  # c1,c1,c3h,c3h
dihedral_coeff	37 ebt    0.24860    0.24220   -0.09250    0.08140    0.05910    0.22190    1.53000    1.10100  # c1,c1,c3h,hc
dihedral_coeff	38 ebt   -0.31900    0.44110   -0.71740    1.15380    0.84090   -0.91380    1.53000    1.42000  # c1,c1,c3h,o3e
dihedral_coeff	39 ebt   -0.24560    1.05170   -0.77950    0.47410    1.26350    0.55760    1.53000    1.42000  # c1,c1,o3e,c1
dihedral_coeff	40 ebt   -0.24560    1.05170   -0.77950    0.47410    1.26350    0.55760    1.53000    1.42000  # c1,c1,oc,c1
dihedral_coeff	41 ebt    0.00000    0.00000    0.00000    0.00000    0.00000    0.00000    1.53000    0.96000  # c1,c1,oh,h
dihedral_coeff	42 ebt    0.24860    0.24220   -0.09250    0.08140    0.05910    0.22190    1.53000    1.10100  # c1,c3h,c3h,hc
dihedral_coeff	43 ebt   -0.31900    0.44110   -0.71740    1.15380    0.84090   -0.91380    1.53000    1.42000  # c1,c3h,c3h,o3e
dihedral_coeff	44 ebt   -0.24560    1.05170   -0.77950    0.47410    1.26350    0.55760    1.53000    1.42000  # c1,c3h,o3e,c3h
dihedral_coeff	45 ebt   -0.16200    0.15640   -1.14080   -0.60540    1.33390    0.96480    1.42000    1.10100  # c1,o3e,c1,hc
dihedral_coeff	46 ebt   -0.16200    0.15640   -1.14080   -0.60540    1.33390    0.96480    1.42000    1.10100  # c1,oc,c1,hc
dihedral_coeff	47 ebt    0.08140    0.05910    0.22190    0.24860    0.24220   -0.09250    1.53000    1.10100  # c3h,c,c1,hc
dihedral_coeff	48 ebt    0.08140    0.05910    0.22190    0.24860    0.24220   -0.09250    1.53000    1.10100  # c3h,c1,c1,hc
dihedral_coeff	49 ebt    0.08140    0.05910    0.22190    0.24860    0.24220   -0.09250    1.53000    1.10100  # c3h,c3h,c,hc
dihedral_coeff	50 ebt    0.08140    0.05910    0.22190    0.24860    0.24220   -0.09250    1.53000    1.10100  # c3h,c3h,c1,hc
dihedral_coeff	51 ebt   -0.60540    1.33390    0.96480   -0.16200    0.15640   -1.14080    1.42000    1.10100  # c3h,o3e,c3h,hc
dihedral_coeff	52 ebt    0.00000    0.00000    0.00000    0.00000    0.00000    0.00000    0.96000    1.10100  # h,oh,c1,hc
dihedral_coeff	53 ebt    0.21300    0.31200    0.07770    0.21300    0.31200    0.07770    1.10100    1.10100  # hc,c,c,hc
dihedral_coeff	54 ebt    0.21300    0.31200    0.07770    0.21300    0.31200    0.07770    1.10100    1.10100  # hc,c,c1,hc
dihedral_coeff	55 ebt    0.96810    0.95510    0.04360    0.59030    0.66690    0.85840    1.10100    1.42000  # hc,c,c1,o3e
dihedral_coeff	56 ebt    0.96810    0.95510    0.04360    0.59030    0.66690    0.85840    1.10100    1.42000  # hc,c,c1,oc
dihedral_coeff	57 ebt    0.21300    0.31200    0.07770    0.21300    0.31200    0.07770    1.10100    1.10100  # hc,c,c3h,hc
dihedral_coeff	58 ebt    0.96810    0.95510    0.04360    0.59030    0.66690    0.85840    1.10100    1.42000  # hc,c,c3h,o3e
dihedral_coeff	59 ebt    0.21300    0.31200    0.07770    0.21300    0.31200    0.07770    1.10100    1.10100  # hc,c1,c1,hc
dihedral_coeff	60 ebt    0.96810    0.95510    0.04360    0.59030    0.66690    0.85840    1.10100    1.42000  # hc,c1,c1,o3e
dihedral_coeff	61 ebt    0.96810    0.95510    0.04360    0.59030    0.66690    0.85840    1.10100    1.42000  # hc,c1,c1,oc
dihedral_coeff	62 ebt    0.59030    0.66690    0.85840    0.96810    0.95510    0.04360    1.10100    1.42000  # hc,c1,c1,oh
dihedral_coeff	63 ebt    0.21300    0.31200    0.07770    0.21300    0.31200    0.07770    1.10100    1.10100  # hc,c1,c3h,hc
dihedral_coeff	64 ebt    0.96810    0.95510    0.04360    0.59030    0.66690    0.85840    1.10100    1.42000  # hc,c1,c3h,o3e
dihedral_coeff	65 ebt    0.21300    0.31200    0.07770    0.21300    0.31200    0.07770    1.10100    1.10100  # hc,c3h,c3h,hc
dihedral_coeff	66 ebt    0.96810    0.95510    0.04360    0.59030    0.66690    0.85840    1.10100    1.42000  # hc,c3h,c3h,o3e
dihedral_coeff	67 ebt    1.01650    0.75530   -0.46090    1.01650    0.75530   -0.46090    1.42000    1.42000  # oc,c1,c1,oc
dihedral_coeff	68 ebt    1.01650    0.75530   -0.46090    1.01650    0.75530   -0.46090    1.42000    1.42000  # oc,c1,c1,oh

# AngleTorsion Coeffs

dihedral_coeff	 1 at    0.38860   -0.31390    0.13890    0.38860   -0.31390    0.13890  112.67000  112.67000  # c,c,c1,c1
dihedral_coeff	 2 at    0.31130    0.45160   -0.19880   -0.24540    0.00000   -0.11360  112.67000  110.77000  # c,c,c1,hc
dihedral_coeff	 3 at    0.96720   -0.75660   -1.23310    0.56230   -0.30410   -0.40150  112.67000  111.27000  # c,c,c1,oc
dihedral_coeff	 4 at    0.38860   -0.31390    0.13890    0.38860   -0.31390    0.13890  112.67000  112.67000  # c,c1,c,c1
dihedral_coeff	 5 at    0.31130    0.45160   -0.19880   -0.24540    0.00000   -0.11360  112.67000  110.77000  # c,c1,c,hc
dihedral_coeff	 6 at    0.38860   -0.31390    0.13890    0.38860   -0.31390    0.13890  112.67000  112.67000  # c,c1,c1,c
dihedral_coeff	 7 at    0.38860   -0.31390    0.13890    0.38860   -0.31390    0.13890  112.67000  112.67000  # c,c1,c1,c1
dihedral_coeff	 8 at    0.38860   -0.31390    0.13890    0.38860   -0.31390    0.13890  112.67000  112.67000  # c,c1,c1,c3h
dihedral_coeff	 9 at    0.31130    0.45160   -0.19880   -0.24540    0.00000   -0.11360  112.67000  110.77000  # c,c1,c1,hc
dihedral_coeff	10 at    0.56230   -0.30410   -0.40150    0.96720   -0.75660   -1.23310  112.67000  111.27000  # c,c1,c1,o3e
dihedral_coeff	11 at    0.96720   -0.75660   -1.23310    0.56230   -0.30410   -0.40150  112.67000  111.27000  # c,c1,c1,oc
dihedral_coeff	12 at    0.96720   -0.75660   -1.23310    0.56230   -0.30410   -0.40150  112.67000  111.27000  # c,c1,c1,oh
dihedral_coeff	13 at    0.56760    0.94500    0.07030   -2.74660    1.48770   -0.89550  111.27000  104.50000  # c,c1,o3e,c1
dihedral_coeff	14 at    0.56760    0.94500    0.07030   -2.74660    1.48770   -0.89550  111.27000  104.50000  # c,c1,oc,c1
dihedral_coeff	15 at    0.38860   -0.31390    0.13890    0.38860   -0.31390    0.13890  112.67000  112.67000  # c,c3h,c3h,c1
dihedral_coeff	16 at    0.31130    0.45160   -0.19880   -0.24540    0.00000   -0.11360  112.67000  110.77000  # c,c3h,c3h,hc
dihedral_coeff	17 at    0.56230   -0.30410   -0.40150    0.96720   -0.75660   -1.23310  112.67000  111.27000  # c,c3h,c3h,o3e
dihedral_coeff	18 at   -2.74660    1.48770   -0.89550    0.56760    0.94500    0.07030  111.27000  104.50000  # c,c3h,o3e,c3h
dihedral_coeff	19 at    0.38860   -0.31390    0.13890    0.38860   -0.31390    0.13890  112.67000  112.67000  # c1,c,c,c1
dihedral_coeff	20 at   -0.24540    0.00000   -0.11360    0.31130    0.45160   -0.19880  112.67000  110.77000  # c1,c,c,hc
dihedral_coeff	21 at    0.38860   -0.31390    0.13890    0.38860   -0.31390    0.13890  112.67000  112.67000  # c1,c,c1,c1
dihedral_coeff	22 at   -0.24540    0.00000   -0.11360    0.31130    0.45160   -0.19880  112.67000  110.77000  # c1,c,c1,hc
dihedral_coeff	23 at    0.56230   -0.30410   -0.40150    0.96720   -0.75660   -1.23310  112.67000  111.27000  # c1,c,c1,o3e
dihedral_coeff	24 at    0.56230   -0.30410   -0.40150    0.96720   -0.75660   -1.23310  112.67000  111.27000  # c1,c,c1,oc
dihedral_coeff	25 at    0.38860   -0.31390    0.13890    0.38860   -0.31390    0.13890  112.67000  112.67000  # c1,c,c3h,c3h
dihedral_coeff	26 at   -0.24540    0.00000   -0.11360    0.31130    0.45160   -0.19880  112.67000  110.77000  # c1,c,c3h,hc
dihedral_coeff	27 at    0.56230   -0.30410   -0.40150    0.96720   -0.75660   -1.23310  112.67000  111.27000  # c1,c,c3h,o3e
dihedral_coeff	28 at    0.38860   -0.31390    0.13890    0.38860   -0.31390    0.13890  112.67000  112.67000  # c1,c1,c,c3h
dihedral_coeff	29 at   -0.24540    0.00000   -0.11360    0.31130    0.45160   -0.19880  112.67000  110.77000  # c1,c1,c,hc
dihedral_coeff	30 at    0.38860   -0.31390    0.13890    0.38860   -0.31390    0.13890  112.67000  112.67000  # c1,c1,c1,c1
dihedral_coeff	31 at    0.38860   -0.31390    0.13890    0.38860   -0.31390    0.13890  112.67000  112.67000  # c1,c1,c1,c3h
dihedral_coeff	32 at   -0.24540    0.00000   -0.11360    0.31130    0.45160   -0.19880  112.67000  110.77000  # c1,c1,c1,hc
dihedral_coeff	33 at    0.56230   -0.30410   -0.40150    0.96720   -0.75660   -1.23310  112.67000  111.27000  # c1,c1,c1,o3e
dihedral_coeff	34 at    0.56230   -0.30410   -0.40150    0.96720   -0.75660   -1.23310  112.67000  111.27000  # c1,c1,c1,oc
dihedral_coeff	35 at    0.96720   -0.75660   -1.23310    0.56230   -0.30410   -0.40150  112.67000  111.27000  # c1,c1,c1,oh
dihedral_coeff	36 at    0.38860   -0.31390    0.13890    0.38860   -0.31390    0.13890  112.67000  112.67000  # c1,c1,c3h,c3h
dihedral_coeff	37 at   -0.24540    0.00000   -0.11360    0.31130    0.45160   -0.19880  112.67000  110.77000  # c1,c1,c3h,hc
dihedral_coeff	38 at    0.56230   -0.30410   -0.40150    0.96720   -0.75660   -1.23310  112.67000  111.27000  # c1,c1,c3h,o3e
dihedral_coeff	39 at   -2.74660    1.48770   -0.89550    0.56760    0.94500    0.07030  111.27000  104.50000  # c1,c1,o3e,c1
dihedral_coeff	40 at   -2.74660    1.48770   -0.89550    0.56760    0.94500    0.07030  111.27000  104.50000  # c1,c1,oc,c1
dihedral_coeff	41 at    0.00000    0.00000    0.00000    0.00000    0.00000    0.00000  111.27000  109.00000  # c1,c1,oh,h
dihedral_coeff	42 at   -0.24540    0.00000   -0.11360    0.31130    0.45160   -0.19880  112.67000  110.77000  # c1,c3h,c3h,hc
dihedral_coeff	43 at    0.56230   -0.30410   -0.40150    0.96720   -0.75660   -1.23310  112.67000  111.27000  # c1,c3h,c3h,o3e
dihedral_coeff	44 at   -2.74660    1.48770   -0.89550    0.56760    0.94500    0.07030  111.27000  104.50000  # c1,c3h,o3e,c3h
dihedral_coeff	45 at   -0.77770    0.43400   -0.66530   -1.82340    1.63930    0.51440  104.50000  108.72800  # c1,o3e,c1,hc
dihedral_coeff	46 at   -0.77770    0.43400   -0.66530   -1.82340    1.63930    0.51440  104.50000  108.72800  # c1,oc,c1,hc
dihedral_coeff	47 at    0.31130    0.45160   -0.19880   -0.24540    0.00000   -0.11360  112.67000  110.77000  # c3h,c,c1,hc
dihedral_coeff	48 at    0.31130    0.45160   -0.19880   -0.24540    0.00000   -0.11360  112.67000  110.77000  # c3h,c1,c1,hc
dihedral_coeff	49 at    0.31130    0.45160   -0.19880   -0.24540    0.00000   -0.11360  112.67000  110.77000  # c3h,c3h,c,hc
dihedral_coeff	50 at    0.31130    0.45160   -0.19880   -0.24540    0.00000   -0.11360  112.67000  110.77000  # c3h,c3h,c1,hc
dihedral_coeff	51 at   -1.82340    1.63930    0.51440   -0.77770    0.43400   -0.66530  104.50000  108.72800  # c3h,o3e,c3h,hc
dihedral_coeff	52 at    0.00000    0.00000    0.00000    0.00000    0.00000    0.00000  109.00000  108.72800  # h,oh,c1,hc
dihedral_coeff	53 at   -0.80850    0.55690   -0.24660   -0.80850    0.55690   -0.24660  110.77000  110.77000  # hc,c,c,hc
dihedral_coeff	54 at   -0.80850    0.55690   -0.24660   -0.80850    0.55690   -0.24660  110.77000  110.77000  # hc,c,c1,hc
dihedral_coeff	55 at    2.36680    2.49200   -1.01220   -0.18920    0.49180    0.72730  110.77000  111.27000  # hc,c,c1,o3e
dihedral_coeff	56 at    2.36680    2.49200   -1.01220   -0.18920    0.49180    0.72730  110.77000  111.27000  # hc,c,c1,oc
dihedral_coeff	57 at   -0.80850    0.55690   -0.24660   -0.80850    0.55690   -0.24660  110.77000  110.77000  # hc,c,c3h,hc
dihedral_coeff	58 at    2.36680    2.49200   -1.01220   -0.18920    0.49180    0.72730  110.77000  111.27000  # hc,c,c3h,o3e
dihedral_coeff	59 at   -0.80850    0.55690   -0.24660   -0.80850    0.55690   -0.24660  110.77000  110.77000  # hc,c1,c1,hc
dihedral_coeff	60 at    2.36680    2.49200   -1.01220   -0.18920    0.49180    0.72730  110.77000  111.27000  # hc,c1,c1,o3e
dihedral_coeff	61 at    2.36680    2.49200   -1.01220   -0.18920    0.49180    0.72730  110.77000  111.27000  # hc,c1,c1,oc
dihedral_coeff	62 at   -0.18920    0.49180    0.72730    2.36680    2.49200   -1.01220  110.77000  111.27000  # hc,c1,c1,oh
dihedral_coeff	63 at   -0.80850    0.55690   -0.24660   -0.80850    0.55690   -0.24660  110.77000  110.77000  # hc,c1,c3h,hc
dihedral_coeff	64 at    2.36680    2.49200   -1.01220   -0.18920    0.49180    0.72730  110.77000  111.27000  # hc,c1,c3h,o3e
dihedral_coeff	65 at   -0.80850    0.55690   -0.24660   -0.80850    0.55690   -0.24660  110.77000  110.77000  # hc,c3h,c3h,hc
dihedral_coeff	66 at    2.36680    2.49200   -1.01220   -0.18920    0.49180    0.72730  110.77000  111.27000  # hc,c3h,c3h,o3e
dihedral_coeff	67 at    0.55110    0.97370   -0.66730    0.55110    0.97370   -0.66730  111.27000  111.27000  # oc,c1,c1,oc
dihedral_coeff	68 at    0.55110    0.97370   -0.66730    0.55110    0.97370   -0.66730  111.27000  111.27000  # oc,c1,c1,oh

# AngleAngleTorsion Coeffs

dihedral_coeff	 1 aat  -22.04500  112.67000  112.67000  # c,c,c1,c1
dihedral_coeff	 2 aat  -16.16400  112.67000  110.77000  # c,c,c1,hc
dihedral_coeff	 3 aat  -29.04200  112.67000  111.27000  # c,c,c1,oc
dihedral_coeff	 4 aat  -22.04500  112.67000  112.67000  # c,c1,c,c1
dihedral_coeff	 5 aat  -16.16400  112.67000  110.77000  # c,c1,c,hc
dihedral_coeff	 6 aat  -22.04500  112.67000  112.67000  # c,c1,c1,c
dihedral_coeff	 7 aat  -22.04500  112.67000  112.67000  # c,c1,c1,c1
dihedral_coeff	 8 aat  -22.04500  112.67000  112.67000  # c,c1,c1,c3h
dihedral_coeff	 9 aat  -16.16400  112.67000  110.77000  # c,c1,c1,hc
dihedral_coeff	10 aat  -29.04200  112.67000  111.27000  # c,c1,c1,o3e
dihedral_coeff	11 aat  -29.04200  112.67000  111.27000  # c,c1,c1,oc
dihedral_coeff	12 aat  -29.04200  112.67000  111.27000  # c,c1,c1,oh
dihedral_coeff	13 aat  -19.00590  111.27000  104.50000  # c,c1,o3e,c1
dihedral_coeff	14 aat  -19.00590  111.27000  104.50000  # c,c1,oc,c1
dihedral_coeff	15 aat  -22.04500  112.67000  112.67000  # c,c3h,c3h,c1
dihedral_coeff	16 aat  -16.16400  112.67000  110.77000  # c,c3h,c3h,hc
dihedral_coeff	17 aat  -29.04200  112.67000  111.27000  # c,c3h,c3h,o3e
dihedral_coeff	18 aat  -19.00590  111.27000  104.50000  # c,c3h,o3e,c3h
dihedral_coeff	19 aat  -22.04500  112.67000  112.67000  # c1,c,c,c1
dihedral_coeff	20 aat  -16.16400  112.67000  110.77000  # c1,c,c,hc
dihedral_coeff	21 aat  -22.04500  112.67000  112.67000  # c1,c,c1,c1
dihedral_coeff	22 aat  -16.16400  112.67000  110.77000  # c1,c,c1,hc
dihedral_coeff	23 aat  -29.04200  112.67000  111.27000  # c1,c,c1,o3e
dihedral_coeff	24 aat  -29.04200  112.67000  111.27000  # c1,c,c1,oc
dihedral_coeff	25 aat  -22.04500  112.67000  112.67000  # c1,c,c3h,c3h
dihedral_coeff	26 aat  -16.16400  112.67000  110.77000  # c1,c,c3h,hc
dihedral_coeff	27 aat  -29.04200  112.67000  111.27000  # c1,c,c3h,o3e
dihedral_coeff	28 aat  -22.04500  112.67000  112.67000  # c1,c1,c,c3h
dihedral_coeff	29 aat  -16.16400  112.67000  110.77000  # c1,c1,c,hc
dihedral_coeff	30 aat  -22.04500  112.67000  112.67000  # c1,c1,c1,c1
dihedral_coeff	31 aat  -22.04500  112.67000  112.67000  # c1,c1,c1,c3h
dihedral_coeff	32 aat  -16.16400  112.67000  110.77000  # c1,c1,c1,hc
dihedral_coeff	33 aat  -29.04200  112.67000  111.27000  # c1,c1,c1,o3e
dihedral_coeff	34 aat  -29.04200  112.67000  111.27000  # c1,c1,c1,oc
dihedral_coeff	35 aat  -29.04200  112.67000  111.27000  # c1,c1,c1,oh
dihedral_coeff	36 aat  -22.04500  112.67000  112.67000  # c1,c1,c3h,c3h
dihedral_coeff	37 aat  -16.16400  112.67000  110.77000  # c1,c1,c3h,hc
dihedral_coeff	38 aat  -29.04200  112.67000  111.27000  # c1,c1,c3h,o3e
dihedral_coeff	39 aat  -19.00590  111.27000  104.50000  # c1,c1,o3e,c1
dihedral_coeff	40 aat  -19.00590  111.27000  104.50000  # c1,c1,oc,c1
dihedral_coeff	41 aat    0.00000  111.27000  109.00000  # c1,c1,oh,h
dihedral_coeff	42 aat  -16.16400  112.67000  110.77000  # c1,c3h,c3h,hc
dihedral_coeff	43 aat  -29.04200  112.67000  111.27000  # c1,c3h,c3h,o3e
dihedral_coeff	44 aat  -19.00590  111.27000  104.50000  # c1,c3h,o3e,c3h
dihedral_coeff	45 aat  -16.44380  104.50000  108.72800  # c1,o3e,c1,hc
dihedral_coeff	46 aat  -16.44380  104.50000  108.72800  # c1,oc,c1,hc
dihedral_coeff	47 aat  -16.16400  112.67000  110.77000  # c3h,c,c1,hc
dihedral_coeff	48 aat  -16.16400  112.67000  110.77000  # c3h,c1,c1,hc
dihedral_coeff	49 aat  -16.16400  112.67000  110.77000  # c3h,c3h,c,hc
dihedral_coeff	50 aat  -16.16400  112.67000  110.77000  # c3h,c3h,c1,hc
dihedral_coeff	51 aat  -16.44380  104.50000  108.72800  # c3h,o3e,c3h,hc
dihedral_coeff	52 aat    0.00000  109.00000  108.72800  # h,oh,c1,hc
dihedral_coeff	53 aat  -12.56400  110.77000  110.77000  # hc,c,c,hc
dihedral_coeff	54 aat  -12.56400  110.77000  110.77000  # hc,c,c1,hc
dihedral_coeff	55 aat  -20.20060  110.77000  111.27000  # hc,c,c1,o3e
dihedral_coeff	56 aat  -20.20060  110.77000  111.27000  # hc,c,c1,oc
dihedral_coeff	57 aat  -12.56400  110.77000  110.77000  # hc,c,c3h,hc
dihedral_coeff	58 aat  -20.20060  110.77000  111.27000  # hc,c,c3h,o3e
dihedral_coeff	59 aat  -12.56400  110.77000  110.77000  # hc,c1,c1,hc
dihedral_coeff	60 aat  -20.20060  110.77000  111.27000  # hc,c1,c1,o3e
dihedral_coeff	61 aat  -20.20060  110.77000  111.27000  # hc,c1,c1,oc
dihedral_coeff	62 aat  -20.20060  110.77000  111.27000  # hc,c1,c1,oh
dihedral_coeff	63 aat  -12.56400  110.77000  110.77000  # hc,c1,c3h,hc
dihedral_coeff	64 aat  -20.20060  110.77000  111.27000  # hc,c1,c3h,o3e
dihedral_coeff	65 aat  -12.56400  110.77000  110.77000  # hc,c3h,c3h,hc
dihedral_coeff	66 aat  -20.20060  110.77000  111.27000  # hc,c3h,c3h,o3e
dihedral_coeff	67 aat  -14.04840  111.27000  111.27000  # oc,c1,c1,oc
dihedral_coeff	68 aat  -14.04840  111.27000  111.27000  # oc,c1,c1,oh

# BondBond13 Coeffs

dihedral_coeff	 1 bb13    0.00000    1.53000    1.53000  # c,c,c1,c1
dihedral_coeff	 2 bb13    0.00000    1.53000    1.10100  # c,c,c1,hc
dihedral_coeff	 3 bb13    0.00000    1.53000    1.42000  # c,c,c1,oc
dihedral_coeff	 4 bb13    0.00000    1.53000    1.53000  # c,c1,c,c1
dihedral_coeff	 5 bb13    0.00000    1.53000    1.10100  # c,c1,c,hc
dihedral_coeff	 6 bb13    0.00000    1.53000    1.53000  # c,c1,c1,c
dihedral_coeff	 7 bb13    0.00000    1.53000    1.53000  # c,c1,c1,c1
dihedral_coeff	 8 bb13    0.00000    1.53000    1.53000  # c,c1,c1,c3h
dihedral_coeff	 9 bb13    0.00000    1.53000    1.10100  # c,c1,c1,hc
dihedral_coeff	10 bb13    0.00000    1.53000    1.42000  # c,c1,c1,o3e
dihedral_coeff	11 bb13    0.00000    1.53000    1.42000  # c,c1,c1,oc
dihedral_coeff	12 bb13    0.00000    1.53000    1.42000  # c,c1,c1,oh
dihedral_coeff	13 bb13    0.00000    1.53000    1.42000  # c,c1,o3e,c1
dihedral_coeff	14 bb13    0.00000    1.53000    1.42000  # c,c1,oc,c1
dihedral_coeff	15 bb13    0.00000    1.53000    1.53000  # c,c3h,c3h,c1
dihedral_coeff	16 bb13    0.00000    1.53000    1.10100  # c,c3h,c3h,hc
dihedral_coeff	17 bb13    0.00000    1.53000    1.42000  # c,c3h,c3h,o3e
dihedral_coeff	18 bb13    0.00000    1.53000    1.42000  # c,c3h,o3e,c3h
dihedral_coeff	19 bb13    0.00000    1.53000    1.53000  # c1,c,c,c1
dihedral_coeff	20 bb13    0.00000    1.53000    1.10100  # c1,c,c,hc
dihedral_coeff	21 bb13    0.00000    1.53000    1.53000  # c1,c,c1,c1
dihedral_coeff	22 bb13    0.00000    1.53000    1.10100  # c1,c,c1,hc
dihedral_coeff	23 bb13    0.00000    1.53000    1.42000  # c1,c,c1,o3e
dihedral_coeff	24 bb13    0.00000    1.53000    1.42000  # c1,c,c1,oc
dihedral_coeff	25 bb13    0.00000    1.53000    1.53000  # c1,c,c3h,c3h
dihedral_coeff	26 bb13    0.00000    1.53000    1.10100  # c1,c,c3h,hc
dihedral_coeff	27 bb13    0.00000    1.53000    1.42000  # c1,c,c3h,o3e
dihedral_coeff	28 bb13    0.00000    1.53000    1.53000  # c1,c1,c,c3h
dihedral_coeff	29 bb13    0.00000    1.53000    1.10100  # c1,c1,c,hc
dihedral_coeff	30 bb13    0.00000    1.53000    1.53000  # c1,c1,c1,c1
dihedral_coeff	31 bb13    0.00000    1.53000    1.53000  # c1,c1,c1,c3h
dihedral_coeff	32 bb13    0.00000    1.53000    1.10100  # c1,c1,c1,hc
dihedral_coeff	33 bb13    0.00000    1.53000    1.42000  # c1,c1,c1,o3e
dihedral_coeff	34 bb13    0.00000    1.53000    1.42000  # c1,c1,c1,oc
dihedral_coeff	35 bb13    0.00000    1.53000    1.42000  # c1,c1,c1,oh
dihedral_coeff	36 bb13    0.00000    1.53000    1.53000  # c1,c1,c3h,c3h
dihedral_coeff	37 bb13    0.00000    1.53000    1.10100  # c1,c1,c3h,hc
dihedral_coeff	38 bb13    0.00000    1.53000    1.42000  # c1,c1,c3h,o3e
dihedral_coeff	39 bb13    0.00000    1.53000    1.42000  # c1,c1,o3e,c1
dihedral_coeff	40 bb13    0.00000    1.53000    1.42000  # c1,c1,oc,c1
dihedral_coeff	41 bb13    0.00000    1.53000    0.96000  # c1,c1,oh,h
dihedral_coeff	42 bb13    0.00000    1.53000    1.10100  # c1,c3h,c3h,hc
dihedral_coeff	43 bb13    0.00000    1.53000    1.42000  # c1,c3h,c3h,o3e
dihedral_coeff	44 bb13    0.00000    1.53000    1.42000  # c1,c3h,o3e,c3h
dihedral_coeff	45 bb13    0.00000    1.42000    1.10100  # c1,o3e,c1,hc
dihedral_coeff	46 bb13    0.00000    1.42000    1.10100  # c1,oc,c1,hc
dihedral_coeff	47 bb13    0.00000    1.53000    1.10100  # c3h,c,c1,hc
dihedral_coeff	48 bb13    0.00000    1.53000    1.10100  # c3h,c1,c1,hc
dihedral_coeff	49 bb13    0.00000    1.53000    1.10100  # c3h,c3h,c,hc
dihedral_coeff	50 bb13    0.00000    1.53000    1.10100  # c3h,c3h,c1,hc
dihedral_coeff	51 bb13    0.00000    1.42000    1.10100  # c3h,o3e,c3h,hc
dihedral_coeff	52 bb13    0.00000    0.96000    1.10100  # h,oh,c1,hc
dihedral_coeff	53 bb13    0.00000    1.10100    1.10100  # hc,c,c,hc
dihedral_coeff	54 bb13    0.00000    1.10100    1.10100  # hc,c,c1,hc
dihedral_coeff	55 bb13    0.00000    1.10100    1.42000  # hc,c,c1,o3e
dihedral_coeff	56 bb13    0.00000    1.10100    1.42000  # hc,c,c1,oc
dihedral_coeff	57 bb13    0.00000    1.10100    1.10100  # hc,c,c3h,hc
dihedral_coeff	58 bb13    0.00000    1.10100    1.42000  # hc,c,c3h,o3e
dihedral_coeff	59 bb13    0.00000    1.10100    1.10100  # hc,c1,c1,hc
dihedral_coeff	60 bb13    0.00000    1.10100    1.42000  # hc,c1,c1,o3e
dihedral_coeff	61 bb13    0.00000    1.10100    1.42000  # hc,c1,c1,oc
dihedral_coeff	62 bb13    0.00000    1.10100    1.42000  # hc,c1,c1,oh
dihedral_coeff	63 bb13    0.00000    1.10100    1.10100  # hc,c1,c3h,hc
dihedral_coeff	64 bb13    0.00000    1.10100    1.42000  # hc,c1,c3h,o3e
dihedral_coeff	65 bb13    0.00000    1.10100    1.10100  # hc,c3h,c3h,hc
dihedral_coeff	66 bb13    0.00000    1.10100    1.42000  # hc,c3h,c3h,o3e
dihedral_coeff	67 bb13    0.00000    1.42000    1.42000  # oc,c1,c1,oc
dihedral_coeff	68 bb13    0.00000    1.42000    1.42000  # oc,c1,c1,oh

# Improper Coeffs

improper_coeff	 1    0.00000    0.00000  # c,c,c1,hc
improper_coeff	 2    0.00000    0.00000  # c,c,hc,c1
improper_coeff	 3    0.00000    0.00000  # c,c,hc,hc
improper_coeff	 4    0.00000    0.00000  # c,c1,c1,hc
improper_coeff	 5    0.00000    0.00000  # c,c1,hc,c3h
improper_coeff	 6    0.00000    0.00000  # c,c1,hc,hc
improper_coeff	 7    0.00000    0.00000  # c,c3h,hc,hc
improper_coeff	 8    0.00000    0.00000  # c1,c,c,c1
improper_coeff	 9    0.00000    0.00000  # c1,c,c,hc
improper_coeff	10    0.00000    0.00000  # c1,c,c1,c1
improper_coeff	11    0.00000    0.00000  # c1,c,c1,hc
improper_coeff	12    0.00000    0.00000  # c1,c,c1,oc
improper_coeff	13    0.00000    0.00000  # c1,c,hc,c1
improper_coeff	14    0.00000    0.00000  # c1,c,hc,oc
improper_coeff	15    0.00000    0.00000  # c1,c,o3e,c1
improper_coeff	16    0.00000    0.00000  # c1,c,o3e,hc
improper_coeff	17    0.00000    0.00000  # c1,c,oc,c1
improper_coeff	18    0.00000    0.00000  # c1,c,oc,hc
improper_coeff	19    0.00000    0.00000  # c1,c1,c1,c1
improper_coeff	20    0.00000    0.00000  # c1,c1,c1,c3h
improper_coeff	21    0.00000    0.00000  # c1,c1,c1,hc
improper_coeff	22    0.00000    0.00000  # c1,c1,c1,o3e
improper_coeff	23    0.00000    0.00000  # c1,c1,c1,oc
improper_coeff	24    0.00000    0.00000  # c1,c1,c1,oh
improper_coeff	25    0.00000    0.00000  # c1,c1,c3h,hc
improper_coeff	26    0.00000    0.00000  # c1,c1,hc,c3h
improper_coeff	27    0.00000    0.00000  # c1,c1,hc,o3e
improper_coeff	28    0.00000    0.00000  # c1,c1,hc,oc
improper_coeff	29    0.00000    0.00000  # c1,c1,hc,oh
improper_coeff	30    0.00000    0.00000  # c1,c1,o3e,hc
improper_coeff	31    0.00000    0.00000  # c1,c1,oc,hc
improper_coeff	32    0.00000    0.00000  # c3h,c,hc,c3h
improper_coeff	33    0.00000    0.00000  # c3h,c,o3e,c3h
improper_coeff	34    0.00000    0.00000  # c3h,c,o3e,hc
improper_coeff	35    0.00000    0.00000  # c3h,c1,c3h,hc
improper_coeff	36    0.00000    0.00000  # c3h,c1,c3h,o3e
improper_coeff	37    0.00000    0.00000  # c3h,c1,o3e,hc
improper_coeff	38    0.00000    0.00000  # c3h,c3h,o3e,hc

# AngleAngle Coeffs

improper_coeff	 1 aa    0.00000   -1.31990    0.00000  112.67000  110.77000  110.77000  # c,c,c1,hc
improper_coeff	 2 aa    0.00000   -1.31990    0.00000  110.77000  112.67000  110.77000  # c,c,hc,c1
improper_coeff	 3 aa    0.00000   -0.48250    0.00000  110.77000  110.77000  107.66000  # c,c,hc,hc
improper_coeff	 4 aa   -1.31990   -1.31990    0.11840  112.67000  110.77000  110.77000  # c,c1,c1,hc
improper_coeff	 5 aa    0.11840    0.00000   -1.31990  110.77000  112.67000  110.77000  # c,c1,hc,c3h
improper_coeff	 6 aa    0.27380   -0.48250    0.27380  110.77000  110.77000  107.66000  # c,c1,hc,hc
improper_coeff	 7 aa    0.00000   -0.48250    0.00000  110.77000  110.77000  107.66000  # c,c3h,hc,hc
improper_coeff	 8 aa    0.00000    0.00000   -0.17290  112.67000  112.67000  112.67000  # c1,c,c,c1
improper_coeff	 9 aa    0.00000    0.00000    0.11840  112.67000  110.77000  110.77000  # c1,c,c,hc
improper_coeff	10 aa    0.00000   -0.17290    0.00000  112.67000  112.67000  112.67000  # c1,c,c1,c1
improper_coeff	11 aa    0.00000   -1.31990    0.00000  112.67000  110.77000  110.77000  # c1,c,c1,hc
improper_coeff	12 aa    0.00000   -0.83300    0.00000  112.67000  111.27000  111.27000  # c1,c,c1,oc
improper_coeff	13 aa    0.00000   -1.31990    0.00000  110.77000  112.67000  110.77000  # c1,c,hc,c1
improper_coeff	14 aa    0.00000    2.59260    0.00000  110.77000  111.27000  108.72800  # c1,c,hc,oc
improper_coeff	15 aa    0.00000   -0.83300   -0.83300  111.27000  112.67000  111.27000  # c1,c,o3e,c1
improper_coeff	16 aa    0.00000    2.59260    3.91770  111.27000  110.77000  108.72800  # c1,c,o3e,hc
improper_coeff	17 aa    0.00000   -0.83300    0.00000  111.27000  112.67000  111.27000  # c1,c,oc,c1
improper_coeff	18 aa    0.00000    2.59260    0.00000  111.27000  110.77000  108.72800  # c1,c,oc,hc
improper_coeff	19 aa   -0.17290   -0.17290   -0.17290  112.67000  112.67000  112.67000  # c1,c1,c1,c1
improper_coeff	20 aa   -0.17290   -0.17290   -0.17290  112.67000  112.67000  112.67000  # c1,c1,c1,c3h
improper_coeff	21 aa   -1.31990   -1.31990    0.11840  112.67000  110.77000  110.77000  # c1,c1,c1,hc
improper_coeff	22 aa   -0.83300   -0.83300   -3.57440  112.67000  111.27000  111.27000  # c1,c1,c1,o3e
improper_coeff	23 aa   -0.83300   -0.83300   -3.57440  112.67000  111.27000  111.27000  # c1,c1,c1,oc
improper_coeff	24 aa    0.00000    0.00000   -3.57440  112.67000  111.27000  111.27000  # c1,c1,c1,oh
improper_coeff	25 aa   -1.31990    0.00000    0.11840  112.67000  110.77000  110.77000  # c1,c1,c3h,hc
improper_coeff	26 aa    0.11840    0.00000   -1.31990  110.77000  112.67000  110.77000  # c1,c1,hc,c3h
improper_coeff	27 aa    3.91770    2.59260    0.16890  110.77000  111.27000  108.72800  # c1,c1,hc,o3e
improper_coeff	28 aa    3.91770    2.59260    0.16890  110.77000  111.27000  108.72800  # c1,c1,hc,oc
improper_coeff	29 aa    0.00000    0.00000    0.16890  110.77000  111.27000  108.72800  # c1,c1,hc,oh
improper_coeff	30 aa    0.16890    2.59260    3.91770  111.27000  110.77000  108.72800  # c1,c1,o3e,hc
improper_coeff	31 aa    0.16890    2.59260    3.91770  111.27000  110.77000  108.72800  # c1,c1,oc,hc
improper_coeff	32 aa    0.11840    0.00000    0.00000  110.77000  112.67000  110.77000  # c3h,c,hc,c3h
improper_coeff	33 aa   -3.57440    0.00000   -0.83300  111.27000  112.67000  111.27000  # c3h,c,o3e,c3h
improper_coeff	34 aa    0.00000    2.59260    3.91770  111.27000  110.77000  108.72800  # c3h,c,o3e,hc
improper_coeff	35 aa   -1.31990    0.00000    0.11840  112.67000  110.77000  110.77000  # c3h,c1,c3h,hc
improper_coeff	36 aa   -0.83300    0.00000   -3.57440  112.67000  111.27000  111.27000  # c3h,c1,c3h,o3e
improper_coeff	37 aa    0.16890    2.59260    3.91770  111.27000  110.77000  108.72800  # c3h,c1,o3e,hc
improper_coeff	38 aa    0.00000    2.59260    0.00000  111.27000  110.77000  108.72800  # c3h,c3h,o3e,hc

# ------------------------------- OPT Section -------------------------------
minimize 1.0e-5 1.0e-7 100000 400000
Generated 28 of 28 mixed pair_coeff terms from sixthpower/geometric mixing rule
Neighbor list info ...
  update: every = 1 steps, delay = 0 steps, check = yes
  max neighbors/atom: 2000, page size: 100000
  master list distance cutoff = 12
  ghost atom cutoff = 12
  binsize = 6, bins = 16 16 16
  1 neighbor lists, perpetual/occasional/extra = 1 0 0
  (1) pair lj/class2/coul/cut, perpetual
      attributes: half, newton on
      pair build: half/bin/newton
      stencil: half/bin/3d
      bin: standard
Per MPI rank memory allocation (min/avg/max) = 28.57 | 28.84 | 29.36 Mbytes
   Step          Temp          E_pair         E_mol          TotEng         Press     
         0   0             -16.540257      544.15779      527.61754     -17.766961    
        61   0             -18.470637      454.92688      436.45625     -0.54627937   
Loop time of 0.0212639 on 6 procs for 61 steps with 74 atoms

98.2% CPU use with 6 MPI tasks x no OpenMP threads

Minimization stats:
  Stopping criterion = energy tolerance
  Energy initial, next-to-last, final = 
      527.617537237423   436.457784001733   436.456245561992
  Force two-norm initial, final = 322.91497 10.814919
  Force max component initial, final = 77.74518 2.5536947
  Final line search alpha, max atom move = 0.0042485855 0.01084959
  Iterations, force evaluations = 61 122

MPI task timing breakdown:
Section |  min time  |  avg time  |  max time  |%varavg| %total
---------------------------------------------------------------
Pair    | 7.145e-06  | 0.00038211 | 0.001979   |   0.0 |  1.80
Bond    | 1.6712e-05 | 0.0037608  | 0.015572   |   9.5 | 17.69
Neigh   | 0          | 0          | 0          |   0.0 |  0.00
Comm    | 1.6152e-05 | 0.0063162  | 0.01796    |   8.4 | 29.70
Output  | 0          | 0          | 0          |   0.0 |  0.00
Modify  | 0          | 0          | 0          |   0.0 |  0.00
Other   |            | 0.0108     |            |       | 50.81

Nlocal:        12.3333 ave          50 max           0 min
Histogram: 4 0 0 0 1 0 0 0 0 1
Nghost:        69.6667 ave         146 max           0 min
Histogram: 2 0 0 1 0 0 1 0 1 1
Neighs:            164 ave         871 max           0 min
Histogram: 4 1 0 0 0 0 0 0 0 1

Total # of neighbors = 984
Ave neighs/atom = 13.297297
Ave special neighs/atom = 13.972973
Neighbor list builds = 0
Dangerous builds = 0
# ------------------------------- Run Section -------------------------------
#

thermo_style custom step temp pe evdwl ecoul ebond eangle edihed eimp density vol
thermo          100

fix Langevin  all langevin 300 300 100.0 482432
fix moveLimit all nve/limit 0.1
run 20000
Generated 28 of 28 mixed pair_coeff terms from sixthpower/geometric mixing rule
Per MPI rank memory allocation (min/avg/max) = 27.45 | 27.71 | 28.23 Mbytes
   Step          Temp          PotEng         E_vdwl         E_coul         E_bond        E_angle        E_dihed        E_impro        Density         Volume    
        61   0              436.45625     -3.5027137     -14.967923      6.8697537      569.69456     -115.45095     -6.1864821      0.00099999998  821358.63    
       100   101.80396      453.32845     -2.4221539     -15.137032      15.750342      573.30495     -112.14784     -6.0198114      0.00099999998  821358.63    
       200   193.44298      484.22686     -3.5320823     -14.987092      19.750194      595.20515     -105.11711     -7.0922048      0.00099999998  821358.63    
       300   249.42248      492.07214     -3.844404      -14.494842      31.52252       592.32036     -106.84845     -6.5830466      0.00099999998  821358.63    
       400   296.86304      490.4545      -4.2168399     -15.347826      30.131527      603.00605     -116.12848     -6.9899279      0.00099999998  821358.63    
       500   345.04352      503.30542     -1.6286717     -14.499486      39.306376      602.38583     -116.59893     -5.6597064      0.00099999998  821358.63    
       600   300.61323      503.11178     -0.98825533    -12.790074      38.241216      596.104       -112.41348     -5.0416256      0.00099999998  821358.63    
       700   336.75922      510.7202      -3.3252591     -14.359938      39.224099      608.10454     -113.55131     -5.3719242      0.00099999998  821358.63    
       800   321.76427      503.86311     -2.3865324     -14.710401      28.927699      602.32079     -105.61213     -4.6763082      0.00099999998  821358.63    
       900   330.39387      501.62628     -0.38147968    -14.590847      33.177002      609.30516     -118.55135     -7.3322004      0.00099999998  821358.63    
      1000   334.97633      499.28123     -2.1074015     -14.353588      38.426614      608.48189     -123.92563     -7.2406514      0.00099999998  821358.63    
      1100   283.60234      498.1336      -1.4708182     -14.533332      35.133021      589.93537     -104.88244     -6.0481946      0.00099999998  821358.63    
      1200   310.15615      496.25734     -4.4609671     -14.884602      34.904606      597.39104     -111.43191     -5.2608283      0.00099999998  821358.63    
      1300   253.09008      492.53534     -2.0190808     -14.149003      33.728878      589.2193      -108.99215     -5.2526122      0.00099999998  821358.63    
      1400   279.55111      488.97832     -1.4992991     -14.499768      31.331629      594.19193     -114.25496     -6.2912084      0.00099999998  821358.63    
      1500   302.15318      487.7541      -1.6008385     -14.274426      26.551556      598.03522     -115.01983     -5.9375841      0.00099999998  821358.63    
      1600   293.18301      502.69651      0.9783565     -15.273976      28.978512      591.39711     -97.52552      -5.8579807      0.00099999998  821358.63    
      1700   301.58733      498.29157     -2.5379284     -14.218292      42.440958      589.6352      -111.98441     -5.043952       0.00099999998  821358.63    
      1800   289.39731      493.12824     -2.1552675     -14.866041      28.706462      594.22124     -108.04413     -4.7340244      0.00099999998  821358.63    
      1900   281.19493      495.63243     -2.0518655     -15.116169      34.170238      587.96724     -104.94274     -4.3942688      0.00099999998  821358.63    
      2000   303.62631      508.35763     -2.6571404     -15.038541      42.928584      614.48722     -123.98575     -7.3767443      0.00099999998  821358.63    
      2100   294.89234      491.90309     -2.7554451     -15.41642       25.178885      608.90234     -118.73951     -5.2667665      0.00099999998  821358.63    
      2200   276.25758      495.36874     -0.64773353    -13.663348      31.817628      593.96995     -109.93567     -6.1720819      0.00099999998  821358.63    
      2300   310.3874       505.22002     -2.4107574     -15.935574      29.599533      600.14218     -101.47313     -4.7022328      0.00099999998  821358.63    
      2400   341.36         493.5805      -2.9660804     -15.183468      28.644769      585.94565     -97.615573     -5.2447965      0.00099999998  821358.63    
      2500   300.43256      495.04481     -0.29226531    -14.660763      32.592341      605.83519     -122.64589     -5.7838024      0.00099999998  821358.63    
      2600   301.04538      497.04048     -0.87696408    -14.420186      37.128669      601.68706     -120.20119     -6.2769066      0.00099999998  821358.63    
      2700   278.07446      492.90509     -2.463635      -13.745621      25.422041      587.7997      -98.855847     -5.2515498      0.00099999998  821358.63    
      2800   338.36176      503.68704     -0.96902244    -15.129883      37.707239      610.33429     -122.81316     -5.44243        0.00099999998  821358.63    
      2900   340.03887      517.47435     -4.9107481     -16.048793      47.111872      603.71276     -107.33722     -5.0535216      0.00099999998  821358.63    
      3000   319.4757       498.51971     -2.4225752     -14.604745      32.873565      594.93984     -108.72264     -3.5437262      0.00099999998  821358.63    
      3100   302.99264      505.68297     -5.1034237     -14.60058       33.336424      614.72968     -117.21026     -5.4688617      0.00099999998  821358.63    
      3200   315.23234      499.94611     -3.6942553     -14.482306      29.210334      593.55799     -100.03963     -4.6060268      0.00099999998  821358.63    
      3300   240.52442      497.10483     -4.3318796     -15.124955      37.2458        606.79847     -120.43275     -7.0498568      0.00099999998  821358.63    
      3400   303.3539       495.58392     -1.3704269     -15.203418      33.432815      603.33146     -119.37327     -5.2332409      0.00099999998  821358.63    
      3500   281.58222      507.98948      0.91570316    -15.81518       37.059211      605.97624     -113.84328     -6.3032098      0.00099999998  821358.63    
      3600   283.23291      492.56301     -3.1490201     -15.325696      28.511563      605.25093     -115.99692     -6.7278542      0.00099999998  821358.63    
      3700   334.71685      506.86867      3.7293308     -14.790142      31.182779      610.29366     -115.94538     -7.6015828      0.00099999998  821358.63    
      3800   313.56563      506.25773     -2.1907821     -14.023823      40.761006      596.01451     -107.20857     -7.0946211      0.00099999998  821358.63    
      3900   319.08349      490.66462     -3.9785563     -14.506042      30.43615       600.34513     -115.34628     -6.2857833      0.00099999998  821358.63    
      4000   296.81345      498.22932     -3.3320605     -14.654888      34.704846      596.40172     -109.06837     -5.8219197      0.00099999998  821358.63    
      4100   312.0565       500.7905      -2.1865485     -16.695374      35.937746      606.38303     -116.49837     -6.1499837      0.00099999998  821358.63    
      4200   276.60417      501.47782     -2.6511293     -16.662279      33.851469      607.21535     -114.39584     -5.8797441      0.00099999998  821358.63    
      4300   301.96793      505.49186     -4.2542615     -15.895836      37.68107       604.77861     -112.07254     -4.7451929      0.00099999998  821358.63    
      4400   300.70908      495.43763     -2.2555869     -14.285943      36.028611      604.40194     -122.05773     -6.3936661      0.00099999998  821358.63    
      4500   299.70535      502.00101     -2.4960679     -14.788405      36.725814      603.82246     -114.14002     -7.1227747      0.00099999998  821358.63    
      4600   328.89082      496.21774     -1.7556162     -16.886973      35.729359      594.9215      -110.17133     -5.6191989      0.00099999998  821358.63    
      4700   302.97108      496.98434     -1.7404911     -15.760684      35.217117      603.27396     -117.84907     -6.1564908      0.00099999998  821358.63    
      4800   332.76858      493.13822     -1.3388441     -13.986066      28.373877      606.02088     -118.70741     -7.2242247      0.00099999998  821358.63    
      4900   317.63034      495.39944     -1.1977997     -17.649342      33.367658      603.30454     -116.70888     -5.7167412      0.00099999998  821358.63    
      5000   295.2734       511.44628     -1.305388      -15.59953       39.05781       606.32079     -111.25832     -5.7690891      0.00099999998  821358.63    
      5100   299.01751      498.03133      0.26100277    -12.700254      35.66416       601.5269      -120.20902     -6.5114561      0.00099999998  821358.63    
      5200   359.87025      482.99444     -4.3346404     -15.82255       31.893426      581.01172     -104.98372     -4.7697983      0.00099999998  821358.63    
      5300   284.4969       501.16312     -3.2042246     -14.337797      37.782079      600.4276      -112.93966     -6.564882       0.00099999998  821358.63    
      5400   362.76089      501.99431     -2.6240536     -14.456867      44.373933      613.07392     -130.85916     -7.5134586      0.00099999998  821358.63    
      5500   281.98909      488.68449     -2.3872225     -14.501095      25.709576      610.58123     -123.95702     -6.7609771      0.00099999998  821358.63    
      5600   328.6166       495.5631      -0.38362558    -13.839019      27.76846       596.54379     -108.97083     -5.5556718      0.00099999998  821358.63    
      5700   323.46808      494.52739     -2.2679241     -14.414758      26.363399      605.20507     -114.71541     -5.642981       0.00099999998  821358.63    
      5800   258.87933      514.99111     -2.9783682     -13.873719      32.715494      605.65065     -101.02487     -5.4980804      0.00099999998  821358.63    
      5900   326.61264      495.49067     -2.7215906     -13.823581      39.543054      595.00695     -117.28586     -5.2283025      0.00099999998  821358.63    
      6000   271.65869      490.94806     -1.306962      -13.862273      30.090491      585.80124     -104.58071     -5.1937214      0.00099999998  821358.63    
      6100   245.91252      493.78475     -0.58507204    -14.673569      38.218724      597.41883     -120.96537     -5.6288054      0.00099999998  821358.63    
      6200   284.94451      495.16644     -1.2823455     -13.844514      29.860285      601.39834     -114.31287     -6.6524576      0.00099999998  821358.63    
      6300   303.89689      508.2716      -1.8925017     -16.333719      35.413154      603.20808     -107.45595     -4.6674649      0.00099999998  821358.63    
      6400   285.54775      499.56932     -4.9959629     -14.055995      33.791243      604.0218      -113.66123     -5.5305413      0.00099999998  821358.63    
      6500   285.16044      498.36322     -3.0985128     -13.919322      32.975739      595.61074     -107.76521     -5.4402135      0.00099999998  821358.63    
      6600   258.03648      495.19597     -1.7184213     -14.056961      26.857138      593.52864     -103.94309     -5.4713322      0.00099999998  821358.63    
      6700   308.84994      490.98735     -3.1321775     -13.636013      34.838527      590.0531      -111.99551     -5.140579       0.00099999998  821358.63    
      6800   292.36029      504.42346     -2.0994632     -13.808434      35.696094      592.97569     -102.74684     -5.5935854      0.00099999998  821358.63    
      6900   260.87778      503.34015     -1.6530291     -14.129288      35.191755      610.8339      -119.90818     -6.9950111      0.00099999998  821358.63    
      7000   293.10604      503.4922      -3.5539623     -14.625109      32.998078      610.78422     -117.37241     -4.7386049      0.00099999998  821358.63    
      7100   247.65408      507.66838      0.38972904    -13.841945      43.344569      578.50268     -95.471111     -5.2555407      0.00099999998  821358.63    
      7200   301.34275      496.19839     -2.7405204     -14.903212      34.324948      595.14251     -109.95349     -5.6718459      0.00099999998  821358.63    
      7300   289.23971      507.59658     -2.3963013     -14.178067      40.705348      607.80227     -117.47249     -6.86418        0.00099999998  821358.63    
      7400   304.69704      487.56932     -2.4221897     -15.231413      28.201044      599.72969     -115.52059     -7.1872201      0.00099999998  821358.63    
      7500   293.4871       496.51139     -2.9467496     -13.165826      31.431663      605.70658     -118.1215      -6.3927732      0.00099999998  821358.63    
      7600   286.72576      499.56441     -2.0036681     -14.314702      41.796253      587.90445     -107.96711     -5.8508185      0.00099999998  821358.63    
      7700   318.74509      495.22194     -2.1822186     -13.598092      29.487587      599.0581      -111.06705     -6.4763811      0.00099999998  821358.63    
      7800   275.66955      492.64268      0.39013967    -13.83943       31.839766      585.99532     -107.30131     -4.4418049      0.00099999998  821358.63    
      7900   272.41001      493.54197     -2.5008971     -14.696208      34.400678      598.52129     -115.4587      -6.7242031      0.00099999998  821358.63    
      8000   314.79213      497.39974     -3.2251418     -15.042358      36.663077      606.13887     -119.39935     -7.7353584      0.00099999998  821358.63    
      8100   317.52596      497.72147     -2.9380767     -13.824043      33.793277      610.95947     -124.04659     -6.2225702      0.00099999998  821358.63    
      8200   299.5152       506.2722      -4.0676644     -14.375035      30.029687      616.92841     -116.45918     -5.7840161      0.00099999998  821358.63    
      8300   338.38029      499.7466      -1.3007475     -13.299544      28.539394      591.51427     -99.744966     -5.9618086      0.00099999998  821358.63    
      8400   289.75031      506.21976     -0.59386454    -15.040216      30.597326      604.12684     -107.87863     -4.9916988      0.00099999998  821358.63    
      8500   298.91757      510.45615     -3.4476611     -13.453929      43.109656      598.84797     -108.94848     -5.6514144      0.00099999998  821358.63    
      8600   309.49465      503.56406      0.64835625    -14.201069      32.307477      600.86628     -109.74139     -6.3156037      0.00099999998  821358.63    
      8700   301.14883      505.25164     -0.43684835    -14.180934      26.624258      606.90207     -107.95234     -5.7045658      0.00099999998  821358.63    
      8800   278.82071      505.58936     -3.6615593     -13.078584      34.810858      607.10543     -113.40897     -6.1778119      0.00099999998  821358.63    
      8900   326.96407      504.58807      1.7423129     -13.262813      32.6063        597.55117     -107.98412     -6.0647809      0.00099999998  821358.63    
      9000   340.86575      495.61806      2.7157257     -14.674687      31.515271      608.37931     -126.13612     -6.1814305      0.00099999998  821358.63    
      9100   306.74605      494.93405     -4.0782218     -14.675387      29.610405      602.06715     -112.61477     -5.3751323      0.00099999998  821358.63    
      9200   281.73042      509.40027     -4.1659889     -14.443332      40.24689       597.40362     -103.89881     -5.7421114      0.00099999998  821358.63    
      9300   273.61449      502.59728     -3.6496939     -15.914152      30.64658       618.46484     -119.50921     -7.4410833      0.00099999998  821358.63    
      9400   308.8666       500.96566     -2.7650775     -14.916661      35.006131      597.8622      -109.17636     -5.0445663      0.00099999998  821358.63    
      9500   293.46632      503.30623     -2.8447848     -15.438217      31.136639      619.10673     -121.13279     -7.521353       0.00099999998  821358.63    
      9600   310.87985      498.4248      -0.93927966    -15.562796      38.239651      598.6293      -114.51911     -7.4229668      0.00099999998  821358.63    
      9700   274.38874      487.44372     -1.8612449     -16.358723      28.732955      602.72102     -119.66007     -6.1302262      0.00099999998  821358.63    
      9800   272.37816      496.56764     -1.8430305     -15.160357      30.578659      606.79985     -117.12897     -6.6785157      0.00099999998  821358.63    
      9900   284.40721      502.07614     -1.0272435     -15.002418      31.904765      603.7374      -111.43143     -6.1049264      0.00099999998  821358.63    
     10000   292.40062      494.17865     -1.8363768     -15.049991      23.097277      603.33843     -109.55775     -5.8129339      0.00099999998  821358.63    
     10100   305.46716      497.03058     -2.5484443     -14.669333      37.227786      597.85833     -114.7578      -6.0799516      0.00099999998  821358.63    
     10200   285.9403       491.92046     -1.0548318     -14.459323      37.561367      585.90875     -110.77185     -5.2636563      0.00099999998  821358.63    
     10300   257.24402      505.51983     -2.8007652     -14.793927      34.102963      606.98906     -111.32041     -6.657089       0.00099999998  821358.63    
     10400   305.4063       504.5382      -2.3573458     -14.829087      36.351758      615.38316     -123.5374      -6.472875       0.00099999998  821358.63    
     10500   333.8406       500.95386     -4.0389996     -15.41175       38.127717      602.13461     -114.7838      -5.0739204      0.00099999998  821358.63    
     10600   342.8235       493.7028      -1.9149279     -14.700714      28.732502      594.06065     -106.22937     -6.2453368      0.00099999998  821358.63    
     10700   268.41074      487.08143     -3.6208052     -14.438645      27.912474      597.58418     -114.57012     -5.7856491      0.00099999998  821358.63    
     10800   309.17723      497.28491     -2.4622775     -14.642204      33.076493      601.67079     -114.80812     -5.5497662      0.00099999998  821358.63    
     10900   373.09179      500.177       -3.543365      -14.980629      37.286672      609.36063     -121.68632     -6.2599902      0.00099999998  821358.63    
     11000   292.57467      503.28754     -4.2542669     -16.196071      37.491816      610.70782     -117.41196     -7.0498014      0.00099999998  821358.63    
     11100   283.51512      501.83651     -5.0329177     -14.75839       29.631917      618.46521     -119.18618     -7.283127       0.00099999998  821358.63    
     11200   342.84511      498.0952      -2.635362      -14.866619      32.073514      593.87213     -103.6298      -6.7186615      0.00099999998  821358.63    
     11300   317.41603      493.11135     -4.1663114     -14.775365      25.961652      604.13481     -112.57971     -5.4637208      0.00099999998  821358.63    
     11400   294.19939      517.53211     -4.8802319     -14.405581      53.636844      621.47122     -130.0905      -8.199642       0.00099999998  821358.63    
     11500   316.54995      508.51052     -1.7399165     -14.352303      33.237393      614.10479     -117.68208     -5.0573689      0.00099999998  821358.63    
     11600   293.79486      491.62716     -3.8860078     -13.900059      27.618573      604.13179     -114.84335     -7.4937863      0.00099999998  821358.63    
     11700   305.06057      498.05751     -3.7867945     -14.663558      31.819152      607.66053     -116.09941     -6.8724147      0.00099999998  821358.63    
     11800   336.92317      507.4308      -2.8121121     -16.104083      37.269492      613.11282     -117.41874     -6.6165703      0.00099999998  821358.63    
     11900   371.96413      495.33198     -1.9222652     -14.819253      26.04811       616.66063     -124.50801     -6.127243       0.00099999998  821358.63    
     12000   298.10058      501.22773     -0.31781071    -14.590536      41.49064       591.54716     -113.2805      -3.621224       0.00099999998  821358.63    
     12100   307.20713      499.614       -1.3750829     -14.927587      29.07687       598.1272      -105.78        -5.5074015      0.00099999998  821358.63    
     12200   314.30146      498.2651      -2.1143485     -16.18078       31.666492      607.67841     -116.63745     -6.1472243      0.00099999998  821358.63    
     12300   282.03871      510.16054     -0.96120876    -14.803084      31.168574      628.55456     -126.99352     -6.804783       0.00099999998  821358.63    
     12400   317.58571      495.57633     -4.3550071     -15.425614      34.390022      609.99639     -120.22205     -8.807416       0.00099999998  821358.63    
     12500   293.1219       501.23308      1.0596243     -15.232083      44.958119      590.87059     -116.07829     -4.3448762      0.00099999998  821358.63    
     12600   291.08827      499.11343      0.45999081    -14.63097       29.618396      602.09054     -112.7408      -5.6837287      0.00099999998  821358.63    
     12700   317.09632      494.77362     -0.36017951    -15.053207      30.724494      597.10541     -111.91634     -5.7265573      0.00099999998  821358.63    
     12800   324.42654      506.46433     -3.6980662     -15.260769      39.906557      615.71227     -124.96696     -5.228699       0.00099999998  821358.63    
     12900   333.90161      492.67695     -1.9546282     -15.815415      24.398059      604.54789     -111.50402     -6.9949391      0.00099999998  821358.63    
     13000   255.96574      498.35486     -1.9515599     -15.234798      36.096832      599.24155     -113.60908     -6.1880931      0.00099999998  821358.63    
[...]
    275900   300.51997      492.95665     -2.7089751     -14.596532      37.169032      603.96466     -124.99862     -5.8729185      0.0026143401   314174.36      0            
    276000   294.56799      487.6158      -0.27140043    -15.443874      28.324232      588.55552     -106.69573     -6.8529478      0.0026047401   315332.27      0            
    276100   296.22616      490.75239     -4.050687      -15.528374      36.148855      588.80043     -108.31649     -6.3013435      0.0025897955   317151.92      0            
    276200   306.21285      505.0003      -3.1002566     -14.475154      35.568124      611.02043     -119.42193     -4.5909136      0.0025756528   318893.37      0            
    276300   364.80237      495.01535     -3.1900572     -13.639364      25.962352      609.76163     -117.85448     -6.0247307      0.0025766967   318764.19      0            
    276400   277.99349      507.14037     -1.0304647     -14.146167      39.252212      589.872       -101.89598     -4.9112232      0.0025865518   317549.65      0            
    276500   290.06731      499.20089     -3.2691241     -12.3434        36.945865      587.44717     -104.4139      -5.1657165      0.0025898718   317142.58      0            
    276600   288.15282      498.61402     -2.9676681     -14.337482      38.385564      594.07169     -110.76401     -5.7740742      0.002604982    315302.99      0            
    276700   282.99691      501.90063     -3.349556      -14.556096      35.415675      611.30468     -119.95518     -6.9588958      0.0026180075   313734.24      0            
    276800   318.83492      509.13961      0.59457221    -14.390424      33.677         597.007       -102.31862     -5.4299287      0.0026568764   309144.45      0            
    276900   386.00566      495.36837     -2.688245      -14.850414      39.079843      592.5479      -113.00447     -5.7162407      0.0026719042   307405.72      0            
    277000   331.23092      490.91352     -0.41024567    -14.872386      29.39411       605.47116     -122.78888     -5.8802422      0.0027068127   303441.24      0            
    277100   297.90835      492.8298      -2.6357739     -14.560136      41.07568       590.31798     -115.20877     -6.1591757      0.0027359039   300214.72      0            
    277200   264.79306      499.32358     -3.8406693     -14.265415      31.624577      603.8045      -111.88076     -6.1186491      0.002757097    297907.04      0            
    277300   294.69219      496.06636     -3.0488018     -15.249161      36.980916      594.93423     -112.8508      -4.7000233      0.0027830445   295129.52      0            
    277400   303.87567      507.8665      -2.9535444     -15.320587      36.483687      615.58507     -119.37944     -6.5486811      0.0028212473   291133.15      0            
    277500   340.65627      502.4422      -2.5960245     -15.68296       34.1973        608.44952     -116.32452     -5.6011111      0.0028760972   285580.97      0            
    277600   328.94476      488.80156     -1.568983      -14.870178      31.106068      588.40886     -107.9583      -6.3159098      0.0029412899   279251.15      0            
    277700   317.67771      485.30224     -3.9386734     -15.878572      26.881365      583.86174     -101.62651     -3.9971044      0.0030270765   271337.25      0            
    277800   292.11024      495.46911     -4.0777938     -14.014565      31.647748      597.22796     -110.91126     -4.4029832      0.0031144061   263728.81      0            
    277900   306.87266      498.62245      1.3681125     -14.75614       31.159085      604.98549     -117.51884     -6.6152601      0.0032224299   254887.97      0            
    278000   362.03916      496.49353     -1.269712      -14.609185      26.019674      598.92738     -107.67449     -4.9001407      0.0033241946   247085         0            
    278100   362.88855      503.01574     -2.8801201     -14.828265      37.443272      604.92424     -115.50756     -6.1358266      0.0034578001   237537.91      0            
    278200   309.18335      495.7202      -2.0456715     -14.126614      33.356535      601.18471     -116.76898     -5.8797875      0.0035676556   230223.63      0            
    278300   280.71167      493.52418     -4.4157882     -14.208538      25.107683      608.64289     -114.69634     -6.9057244      0.003678416    223291.39      0            
    278400   299.33928      489.34587     -2.8005197     -13.788401      29.059275      598.25472     -115.51462     -5.8645831      0.0038141196   215346.84      0            
    278500   303.57567      497.62304     -3.9696056     -14.129307      32.098073      599.47343     -110.62186     -5.2276804      0.0039482362   208031.78      0            
    278600   347.86901      498.39622     -3.5137977     -14.053158      33.614521      596.38393     -107.44367     -6.5916029      0.0040694051   201837.51      0            
    278700   319.88427      502.24713     -2.3660244     -13.20905       34.383629      589.63483     -102.42638     -3.7698762      0.0042056912   195296.94      0            
    278800   285.52882      489.3594      -4.017874      -14.071259      28.728079      593.53661     -108.90838     -5.907783       0.0043207519   190096.22      0            
    278900   275.45814      492.54851     -0.051384026   -14.175815      28.277959      596.56134     -113.25954     -4.8040579      0.0044343109   185228.02      0            
    279000   279.2813       501.56272      0.63760111    -14.484358      30.392806      602.50023     -109.57189     -7.9116697      0.0045081333   182194.84      0            
    279100   311.67635      501.95838     -0.26062005    -14.191826      36.649296      602.65512     -116.77051     -6.123088       0.0045655788   179902.4       0            
    279200   313.12775      497.83758     -3.620431      -13.286759      31.801151      608.28471     -117.73031     -7.6107773      0.0046082447   178236.76      0            
    279300   286.98253      485.90701     -2.6232841     -14.10036       31.175647      585.63378     -109.37436     -4.8044149      0.004641876    176945.4       0            
    279400   265.19418      489.155       -3.1202851     -13.813917      31.074844      601.45384     -118.70101     -7.7384817      0.0046837783   175362.4       0            
    279500   260.31371      498.18678     -4.0102611     -14.08397       37.22583       602.2027      -117.46968     -5.6778386      0.0046834432   175374.95      0            
    279600   356.4982       485.91753     -5.7560556     -13.503857      32.79545       591.67394     -113.09853     -6.193421       0.0047289826   173686.11      0            
    279700   339.72526      491.77443     -4.250378      -14.284693      25.452552      610.46596     -119.2782      -6.3308082      0.0047416724   173221.29      0            
    279800   292.73212      495.40874     -2.7541432     -14.293993      35.321152      598.84907     -115.34052     -6.3728374      0.0047319411   173577.52      0            
    279900   251.72683      489.00552     -2.3481909     -14.138406      29.885688      587.77723     -106.75374     -5.4170682      0.0047382247   173347.33      0            
    280000   266.10504      488.72117     -3.923011      -13.707421      31.731978      584.34707     -105.12555     -4.6019019      0.0047233838   173891.99      0            
    280100   282.07759      494.81081     -5.1178063     -13.89296       25.404626      623.81056     -127.6313      -7.7623133      0.0047024679   174665.44      0            
    280200   278.63866      499.35139     -3.4908314     -15.230089      31.48787       599.36697     -107.13691     -5.6456252      0.0046679066   175958.66      0            
    280300   262.17368      503.92674     -3.2324472     -15.103314      33.441365      615.48072     -119.7919      -6.8676811      0.0046578163   176339.85      0            
    280400   287.91756      497.82412     -2.2510249     -15.237208      29.923283      600.38093     -108.91987     -6.0719971      0.0046150768   177972.9       0            
    280500   318.18103      488.60519     -2.7874198     -13.582988      29.657125      599.79917     -118.7508      -5.7299084      0.00460541     178346.47      0            
    280600   254.69787      499.42046     -3.1867114     -13.494325      27.459073      598.77365     -104.74898     -5.3822506      0.0045942612   178779.26      0            
    280700   292.74262      493.58743      0.43907584    -13.809408      34.227517      579.79583     -101.68443     -5.3811564      0.0045720049   179649.55      0            
    280800   328.30009      495.71067     -3.5910252     -14.767589      31.704428      609.53373     -120.76113     -6.4077444      0.0045841309   179174.34      0            
    280900   318.72126      502.92383     -2.3856201     -14.315992      31.205143      605.82394     -110.9818      -6.4218458      0.0045679059   179810.75      0            
    281000   274.05277      499.01557      1.1008712     -14.821766      38.726729      594.63948     -113.67699     -6.9527508      0.0045784597   179396.27      0            
    281100   265.79434      490.51087     -0.60782959    -13.98433       29.616586      597.6433      -116.50447     -5.6523883      0.004553245    180389.73      0            
    281200   282.85441      492.70471     -2.8723886     -13.397024      31.27918       608.51595     -124.13893     -6.6820739      0.0045557365   180291.07      0            
    281300   291.59065      499.62077     -1.7116864     -14.764609      25.558802      602.47841     -106.38352     -5.5566257      0.0045129392   182000.81      0            
    281400   292.41549      502.16716     -4.0024328     -14.812339      41.926058      600.83072     -116.17362     -5.6012325      0.0044774639   183442.82      0            
    281500   317.91638      491.41342     -4.0280055     -14.45627       22.071425      604.64122     -110.92433     -5.8906174      0.0044344986   185220.17      0            
    281600   278.66101      490.00362     -1.6348559     -14.843577      36.657709      591.51857     -116.37779     -5.3164296      0.004376594    187670.73      0            
    281700   246.03127      480.36608     -2.3470187     -14.926783      22.914033      597.41854     -116.96252     -5.7301793      0.0043413635   189193.7       0            
    281800   268.23404      483.06538     -2.8452767     -14.970517      28.90792       593.21323     -115.88553     -5.3544452      0.0042954251   191217.07      0            
    281900   292.23336      490.20802     -1.4101368     -14.174743      30.084565      593.22125     -111.72524     -5.7876731      0.0042710202   192309.7       0            
    282000   290.12181      499.7158      -4.976437      -14.515449      31.475185      611.6614      -116.31159     -7.6173119      0.0042040591   195372.76      0            
    282100   305.19689      499.73065      0.45060082    -14.994033      33.538941      606.80458     -118.8677      -7.2017342      0.0041645374   197226.86      0            
    282200   282.1152       502.62858     -0.95782582    -15.209243      28.227164      611.1317      -114.8794      -5.6838207      0.0040856822   201033.41      0            
    282300   290.05402      491.73194     -2.0086434     -14.803022      31.651212      613.34437     -129.18285     -7.269125       0.0040191128   204363.16      0            
    282400   257.00347      489.80347      0.52355726    -14.556361      32.172844      577.76083     -102.00058     -4.0968158      0.0039299796   208998.18      0            
    282500   285.57652      488.09569     -1.9387171     -14.153277      26.615572      594.35904     -112.09006     -4.696864       0.0038434594   213702.95      0            
    282600   293.94024      500.22372     -5.6976941     -14.759816      37.124071      607.40075     -117.14352     -6.7000751      0.0037465175   219232.56      0            
    282700   308.69107      497.63142     -4.3817912     -15.016724      35.816332      585.97651     -100.35183     -4.4110726      0.0036382866   225754.23      0            
    282800   290.19423      497.61791     -2.5700519     -15.33813       31.147804      601.671       -111.11235     -6.1803588      0.0035399629   232024.64      0            
    282900   302.10251      487.5921      -3.1144184     -14.891525      24.497436      599.29662     -112.1667      -6.0293136      0.0034282148   239587.85      0            
    283000   235.90379      490.73467     -2.5584427     -14.223368      28.023685      601.0848      -116.30824     -5.2837632      0.0033271716   246863.91      0            
    283100   247.06454      489.25303     -1.7064214     -15.103339      22.293835      596.85961     -106.61777     -6.4728849      0.0032171532   255306.03      0            
    283200   308.96247      493.05991     -3.8034548     -14.27118       27.364461      609.60115     -121.28094     -4.5501142      0.0031073723   264325.78      0            
    283300   318.67602      496.17347     -0.77729189    -14.219562      32.345519      596.32094     -111.87376     -5.6223781      0.003010092    272868.27      0            
    283400   304.1187       498.91174     -3.0862807     -13.420922      32.078725      593.05639     -105.72999     -3.98617        0.0028993029   283295.21      0            
    283500   274.67242      504.1643      -3.2482339     -9.7136843      32.089783      601.4327      -110.48539     -5.9108798      0.0028136267   291921.68      0            
    283600   248.33514      497.40874     -1.7299742     -14.020285      31.271232      592.29576     -106.75757     -3.6504196      0.0027413362   299619.8       0            
    283700   279.17313      486.66229     -1.8722175     -13.894051      31.068401      598.4411      -120.61428     -6.4666613      0.0026754348   307000.05      0            
    283800   289.70205      495.42579     -1.0506464     -13.774554      32.607754      589.27373     -106.12224     -5.5082495      0.0026170035   313854.6       0            
    283900   313.06632      500.79292     -4.1505589     -14.113644      31.678219      608.00249     -114.85069     -5.7729011      0.0025805883   318283.47      0            
    284000   295.95448      503.52698     -4.5194934     -14.064371      24.209235      610.34358     -106.66656     -5.7754025      0.0025439501   322867.42      0            
    284100   267.89935      500.67167      2.9139791     -14.883926      26.634683      601.94916     -109.97235     -5.9698789      0.0025212929   325768.82      0            
    284200   272.46834      489.90659     -3.239675      -14.356599      21.373554      606.16065     -114.08269     -5.9486565      0.0025005578   328470.16      0            
    284300   261.16052      495.29555     -2.4426471     -13.697811      29.89958       586.86803     -99.752301     -5.579303       0.002496461    329009.19      0            
    284400   297.73511      494.80779     -2.2340177     -13.963779      28.976414      598.93911     -112.40892     -4.50102        0.002485006    330525.8       0            
    284500   297.48907      496.62994      1.5038167     -14.490724      29.496414      600.95457     -114.8535      -5.9806361      0.0024925293   329528.17      0            
    284600   307.86439      495.82388     -2.3503057     -13.006987      32.833545      586.05384     -104.37337     -3.3328462      0.0025015497   328339.91      0            
    284700   309.40653      495.68099     -4.9018073     -12.788425      28.567696      602.33317     -110.70013     -6.8295099      0.0025038526   328037.92      0            
    284800   302.45523      499.02548     -1.7856087     -14.255023      38.807786      601.33276     -119.1678      -5.9066354      0.0025021851   328256.53      0            
    284900   308.30642      497.72865     -1.9596745     -14.296714      28.687822      610.36617     -119.08499     -5.9839602      0.0025021969   328254.99      0            
    285000   292.89722      495.54026     -5.4568669     -13.669667      26.286673      614.78424     -119.35345     -7.0506658      0.0025068342   327647.76      0            
    285100   281.11826      491.61173      0.62973463    -15.188585      25.24286       592.37677     -105.99389     -5.4551542      0.0025143794   326664.55      0            
    285200   252.77231      500.83369     -2.478756      -13.95015       29.546932      596.28273     -104.19067     -4.3763915      0.0025219524   325683.62      0            
    285300   325.90524      500.39527     -3.2752167     -13.821852      30.147133      606.94097     -114.49783     -5.097926       0.0025383505   323579.67      0            
    285400   308.93265      505.76433     -2.8482348     -14.256866      31.694684      606.8294      -109.10759     -6.5470714      0.0025595957   320893.89      0            
    285500   300.77201      499.86652     -3.6582001     -13.802118      31.23954       595.87653     -104.98516     -4.8040691      0.0025816799   318148.9       0            
    285600   278.87521      498.34114     -0.88703965    -12.802185      32.488484      594.35086     -109.71865     -5.0903326      0.002601634    315708.75      0            
    285700   259.82751      502.8411      -1.5100837     -13.46532       38.135948      596.73495     -112.29056     -4.7638321      0.0026328491   311965.69      0            
    285800   300.49881      496.05019     -4.4623661     -13.801113      28.215772      595.40183     -104.64209     -4.6618403      0.0026641008   308306.14      0            
    285900   294.10624      499.97826     -3.913854      -13.117205      37.134491      604.55096     -118.54059     -6.1355424      0.0026962954   304624.86      0            
    286000   266.70283      508.83623      2.1111968     -14.940715      34.034793      602.87375     -110.45792     -4.7848699      0.0027336027   300467.45      0            
    286100   327.97479      502.68889     -2.9020953     -14.712173      33.986445      602.20082     -110.32543     -5.5586784      0.0027884894   294553.25      0            
    286200   364.95799      494.08255     -2.58893       -15.487522      31.003573      588.09002     -102.68276     -4.2518312      0.0028233501   290916.31      0            
    286300   270.96456      501.05689     -0.63227342    -14.362752      37.039562      598.7184      -114.63424     -5.0718019      0.0028599107   287197.29      0            
    286400   265.84844      496.40344     -2.8830682     -15.10908       34.88955       594.44004     -109.91083     -5.0231772      0.0029181776   281462.85      0            
    286500   317.31878      488.56936     -1.2375227     -13.850308      26.103909      593.09128     -110.42744     -5.1105645      0.0029718145   276382.87      0            
    286600   322.29402      500.22446     -4.2309973     -14.298013      30.211322      606.01026     -112.90701     -4.5611012      0.0030176115   272188.32      0            
    286700   337.41627      507.47085     -1.9012472     -14.753326      35.051326      590.20004     -97.346657     -3.7792853      0.0030796997   266700.87      0            
    286800   320.57685      499.07971     -0.98731767    -15.890365      26.721854      607.58046     -113.72126     -4.6236508      0.0031586237   260036.87      0            
    286900   323.03049      492.55061     -3.5383045     -15.970109      25.512019      602.7238      -111.76995     -4.4068444      0.0032329568   254058.02      0            
    287000   285.44635      496.98794     -1.6766629     -15.981163      33.270995      594.88076     -107.64262     -5.8633702      0.0033222111   247232.51      0            
    287100   314.83498      487.33366     -4.2373922