LAMMPS (22 Dec 2022)
# two molecules DGEBA (diepoxy) and one DETA (linker)
# two crosslinking reactions

units real

boundary p p p

atom_style full

pair_style lj/class2 8

angle_style class2

bond_style class2

dihedral_style class2

improper_style class2

read_data pre_mol.data extra/bond/per/atom 1 extra/angle/per/atom 12 extra/dihedral/per/atom 12 extra/improper/per/atom 12 extra/special/per/atom 12
Reading data file ...
  orthogonal box = (0 0 0) to (26.972903 26.972903 26.972903)
  1 by 1 by 1 MPI processor grid
  reading atoms ...
  22 atoms
  scanning bonds ...
  5 = max bonds/atom
  scanning angles ...
  18 = max angles/atom
  scanning dihedrals ...
  20 = max dihedrals/atom
  scanning impropers ...
  16 = max impropers/atom
  reading bonds ...
  21 bonds
  reading angles ...
  38 angles
  reading dihedrals ...
  42 dihedrals
  reading impropers ...
  24 impropers
Finding 1-2 1-3 1-4 neighbors ...
  special bond factors lj:    0        0        0       
  special bond factors coul:  0        0        0       
     4 = max # of 1-2 neighbors
     7 = max # of 1-3 neighbors
    15 = max # of 1-4 neighbors
    23 = max # of special neighbors
  special bonds CPU = 0.000 seconds
  read_data CPU = 0.002 seconds
include calc.pram

# Masses

mass	1	12.01115	#	c
mass	2	12.01115	#	c1
mass	3	12.01115	#	c3h
mass	4	1.00797	#	h
mass	5	1.00797	#	hc
mass	6	15.99940	#	o3e
mass	7	15.99940	#	oh
mass	8	15.99940	#	oc

# Potentials

pair_coeff	1	1	0.05400	4.01000	#	c,c
pair_coeff	2	2	0.05400	4.01000	#	c1,c1
pair_coeff	3	3	0.05400	4.01000	#	c3h,c3h
pair_coeff	4	4	0.02000	2.99500	#	h,h
pair_coeff	5	5	0.02000	2.99500	#	hc,hc
pair_coeff	6	6	0.24000	3.53500	#	o3e,o3e
pair_coeff	7	7	0.24000	3.53500	#	oh,oh
pair_coeff	8	8	0.24000	3.53500	#	oc,oc

# Bond Coeffs

bond_coeff	1	1.53000	299.67000	-501.77000	679.81000	#	c,c1
bond_coeff	2	1.53000	299.67000	-501.77000	679.81000	#	c,c3h
bond_coeff	3	1.10100	345.00000	-691.89000	844.60000	#	c,hc
bond_coeff	4	1.42000	400.39540	-835.19510	1313.01420	#	c,o3e
bond_coeff	5	1.10100	345.00000	-691.89000	844.60000	#	c1,hc
bond_coeff	6	1.42000	400.39540	-835.19510	1313.01420	#	c1,oh
bond_coeff	7	1.10100	345.00000	-691.89000	844.60000	#	c3h,hc
bond_coeff	8	1.42000	400.39540	-835.19510	1313.01420	#	c3h,o3e
bond_coeff	9	0.96000	493.84800	0.00000	0.00000	#	h,oh
bond_coeff	10	1.42000	400.39540	-835.19510	1313.01420	#	c,oc
bond_coeff	11	1.42000	400.39540	-835.19510	1313.01420	#	c1,oc

# Angle Coeffs

angle_coeff	1	112.67000	39.51600	-7.44300	-9.55830	#	c,c1,c
angle_coeff	2	110.77000	41.45300	-10.60400	5.12900	#	c,c1,hc
angle_coeff	3	111.27000	54.53810	-8.36420	-13.08380	#	c,c1,oh
angle_coeff	4	112.67000	39.51600	-7.44300	-9.55830	#	c,c3h,c
angle_coeff	5	110.77000	41.45300	-10.60400	5.12900	#	c,c3h,hc
angle_coeff	6	111.27000	54.53810	-8.36420	-13.08380	#	c,c3h,o3e
angle_coeff	7	104.50000	35.74540	-10.00670	-6.27290	#	c,o3e,c3h
angle_coeff	8	110.77000	41.45300	-10.60400	5.12900	#	c1,c,hc
angle_coeff	9	109.00000	58.50000	0.00000	0.00000	#	c1,oh,h
angle_coeff	10	110.77000	41.45300	-10.60400	5.12900	#	c3h,c,hc
angle_coeff	11	111.27000	54.53810	-8.36420	-13.08380	#	c3h,c,o3e
angle_coeff	12	107.66000	39.64100	-12.92100	-2.43180	#	hc,c,hc
angle_coeff	13	108.72800	58.54460	-10.80880	-12.40060	#	hc,c,o3e
angle_coeff	14	108.72800	58.54460	-10.80880	-12.40060	#	hc,c1,oh
angle_coeff	15	108.72800	58.54460	-10.80880	-12.40060	#	hc,c3h,o3e
angle_coeff	16	111.27000	54.53810	-8.36420	-13.08380	#	c,c1,oc
angle_coeff	17	104.50000	35.74540	-10.00670	-6.27290	#	c,oc,c1
angle_coeff	18	111.27000	54.53810	-8.36420	-13.08380	#	c1,c,oc
angle_coeff	19	108.72800	58.54460	-10.80880	-12.40060	#	hc,c,oc
angle_coeff	20	108.72800	58.54460	-10.80880	-12.40060	#	hc,c1,oc

# BondBond Coeffs

angle_coeff	1	bb	0.00000	1.53000	1.53000	#	c,c1,c
angle_coeff	2	bb	3.38720	1.53000	1.10100	#	c,c1,hc
angle_coeff	3	bb	11.43180	1.53000	1.42000	#	c,c1,oh
angle_coeff	4	bb	0.00000	1.53000	1.53000	#	c,c3h,c
angle_coeff	5	bb	3.38720	1.53000	1.10100	#	c,c3h,hc
angle_coeff	6	bb	11.43180	1.53000	1.42000	#	c,c3h,o3e
angle_coeff	7	bb	-7.11310	1.42000	1.42000	#	c,o3e,c3h
angle_coeff	8	bb	3.38720	1.53000	1.10100	#	c1,c,hc
angle_coeff	9	bb	0.00000	1.42000	0.96000	#	c1,oh,h
angle_coeff	10	bb	3.38720	1.53000	1.10100	#	c3h,c,hc
angle_coeff	11	bb	11.43180	1.53000	1.42000	#	c3h,c,o3e
angle_coeff	12	bb	5.33160	1.10100	1.10100	#	hc,c,hc
angle_coeff	13	bb	23.19790	1.10100	1.42000	#	hc,c,o3e
angle_coeff	14	bb	23.19790	1.10100	1.42000	#	hc,c1,oh
angle_coeff	15	bb	23.19790	1.10100	1.42000	#	hc,c3h,o3e
angle_coeff	16	bb	11.43180	1.53000	1.42000	#	c,c1,oc
angle_coeff	17	bb	-7.11310	1.42000	1.42000	#	c,oc,c1
angle_coeff	18	bb	11.43180	1.53000	1.42000	#	c1,c,oc
angle_coeff	19	bb	23.19790	1.10100	1.42000	#	hc,c,oc
angle_coeff	20	bb	23.19790	1.10100	1.42000	#	hc,c1,oc

# BondAngle Coeffs

angle_coeff	1	ba	8.01600	8.01600	1.53000	1.53000	#	c,c1,c
angle_coeff	2	ba	20.75400	11.42100	1.53000	1.10100	#	c,c1,hc
angle_coeff	3	ba	2.68680	20.40330	1.53000	1.42000	#	c,c1,oh
angle_coeff	4	ba	8.01600	8.01600	1.53000	1.53000	#	c,c3h,c
angle_coeff	5	ba	20.75400	11.42100	1.53000	1.10100	#	c,c3h,hc
angle_coeff	6	ba	2.68680	20.40330	1.53000	1.42000	#	c,c3h,o3e
angle_coeff	7	ba	-2.81120	-2.81120	1.42000	1.42000	#	c,o3e,c3h
angle_coeff	8	ba	11.42100	20.75400	1.53000	1.10100	#	c1,c,hc
angle_coeff	9	ba	0.00000	0.00000	1.42000	0.96000	#	c1,oh,h
angle_coeff	10	ba	11.42100	20.75400	1.53000	1.10100	#	c3h,c,hc
angle_coeff	11	ba	2.68680	20.40330	1.53000	1.42000	#	c3h,c,o3e
angle_coeff	12	ba	18.10300	18.10300	1.10100	1.10100	#	hc,c,hc
angle_coeff	13	ba	4.61890	55.32700	1.10100	1.42000	#	hc,c,o3e
angle_coeff	14	ba	4.61890	55.32700	1.10100	1.42000	#	hc,c1,oh
angle_coeff	15	ba	4.61890	55.32700	1.10100	1.42000	#	hc,c3h,o3e
angle_coeff	16	ba	2.68680	20.40330	1.53000	1.42000	#	c,c1,oc
angle_coeff	17	ba	-2.81120	-2.81120	1.42000	1.42000	#	c,oc,c1
angle_coeff	18	ba	2.68680	20.40330	1.53000	1.42000	#	c1,c,oc
angle_coeff	19	ba	4.61890	55.32700	1.10100	1.42000	#	hc,c,oc
angle_coeff	20	ba	4.61890	55.32700	1.10100	1.42000	#	hc,c1,oc

# Dihedral Coeffs

dihedral_coeff	1	0.00000	0.00000	0.03160	0.00000	-0.16810	0.00000	#	c,c1,c,hc
dihedral_coeff	2	0.00000	0.00000	0.00000	0.00000	0.13000	180.00000	#	c,c1,oh,h
dihedral_coeff	3	0.00000	0.00000	0.03160	0.00000	-0.16810	0.00000	#	c,c3h,c,hc
dihedral_coeff	4	0.71370	0.00000	0.26600	0.00000	-0.25450	0.00000	#	c,c3h,c,o3e
dihedral_coeff	5	-0.52030	0.00000	-0.30280	0.00000	-0.34500	0.00000	#	c,c3h,o3e,c
dihedral_coeff	6	0.53020	0.00000	0.00000	0.00000	-0.39660	0.00000	#	c,o3e,c3h,hc
dihedral_coeff	7	0.53020	0.00000	0.00000	0.00000	-0.39660	0.00000	#	c3h,o3e,c,hc
dihedral_coeff	8	0.00000	0.00000	0.00000	0.00000	0.13000	180.00000	#	h,oh,c1,hc
dihedral_coeff	9	-0.14320	0.00000	0.06170	0.00000	-0.10830	0.00000	#	hc,c,c1,hc
dihedral_coeff	10	-0.14350	0.00000	0.25300	0.00000	-0.09050	0.00000	#	hc,c,c1,oh
dihedral_coeff	11	-0.14320	0.00000	0.06170	0.00000	-0.10830	0.00000	#	hc,c,c3h,hc
dihedral_coeff	12	-0.14350	0.00000	0.25300	0.00000	-0.09050	0.00000	#	hc,c,c3h,o3e
dihedral_coeff	13	-0.14350	0.00000	0.25300	0.00000	-0.09050	0.00000	#	hc,c3h,c,o3e
dihedral_coeff	14	0.71370	0.00000	0.26600	0.00000	-0.25450	0.00000	#	c,c1,c,oc
dihedral_coeff	15	-0.52030	0.00000	-0.30280	0.00000	-0.34500	0.00000	#	c,c1,oc,c
dihedral_coeff	16	0.53020	0.00000	0.00000	0.00000	-0.39660	0.00000	#	c,oc,c1,hc
dihedral_coeff	17	-0.52030	0.00000	-0.30280	0.00000	-0.34500	0.00000	#	c1,c,oc,c1
dihedral_coeff	18	0.53020	0.00000	0.00000	0.00000	-0.39660	0.00000	#	c1,oc,c,hc
dihedral_coeff	19	-0.14350	0.00000	0.25300	0.00000	-0.09050	0.00000	#	hc,c,c1,oc
dihedral_coeff	20	-0.14350	0.00000	0.25300	0.00000	-0.09050	0.00000	#	hc,c1,c,oc
dihedral_coeff	21	-0.18200	0.00000	-0.10840	0.00000	-0.70470	0.00000	#	oc,c,c1,oh

# MiddleBondTorsion Coeffs

dihedral_coeff	1	mbt	-14.87900	-3.65810	-0.31380	1.53000	#	c,c1,c,hc
dihedral_coeff	2	mbt	0.00000	0.00000	0.00000	1.42000	#	c,c1,oh,h
dihedral_coeff	3	mbt	-14.87900	-3.65810	-0.31380	1.53000	#	c,c3h,c,hc
dihedral_coeff	4	mbt	-21.88420	-7.67640	-0.68680	1.53000	#	c,c3h,c,o3e
dihedral_coeff	5	mbt	-5.92880	-2.70070	-0.31750	1.42000	#	c,c3h,o3e,c
dihedral_coeff	6	mbt	-6.80070	-4.65460	-1.41010	1.42000	#	c,o3e,c3h,hc
dihedral_coeff	7	mbt	-6.80070	-4.65460	-1.41010	1.42000	#	c3h,o3e,c,hc
dihedral_coeff	8	mbt	0.00000	0.00000	0.00000	1.42000	#	h,oh,c1,hc
dihedral_coeff	9	mbt	-14.26100	-0.53220	-0.48640	1.53000	#	hc,c,c1,hc
dihedral_coeff	10	mbt	-16.79750	-1.22960	-0.27500	1.53000	#	hc,c,c1,oh
dihedral_coeff	11	mbt	-14.26100	-0.53220	-0.48640	1.53000	#	hc,c,c3h,hc
dihedral_coeff	12	mbt	-16.79750	-1.22960	-0.27500	1.53000	#	hc,c,c3h,o3e
dihedral_coeff	13	mbt	-16.79750	-1.22960	-0.27500	1.53000	#	hc,c3h,c,o3e
dihedral_coeff	14	mbt	-21.88420	-7.67640	-0.68680	1.53000	#	c,c1,c,oc
dihedral_coeff	15	mbt	-5.92880	-2.70070	-0.31750	1.42000	#	c,c1,oc,c
dihedral_coeff	16	mbt	-6.80070	-4.65460	-1.41010	1.42000	#	c,oc,c1,hc
dihedral_coeff	17	mbt	-5.92880	-2.70070	-0.31750	1.42000	#	c1,c,oc,c1
dihedral_coeff	18	mbt	-6.80070	-4.65460	-1.41010	1.42000	#	c1,oc,c,hc
dihedral_coeff	19	mbt	-16.79750	-1.22960	-0.27500	1.53000	#	hc,c,c1,oc
dihedral_coeff	20	mbt	-16.79750	-1.22960	-0.27500	1.53000	#	hc,c1,c,oc
dihedral_coeff	21	mbt	-17.25850	-3.61570	-0.83640	1.53000	#	oc,c,c1,oh

# EndBondTorsion Coeffs

dihedral_coeff	1	ebt	0.24860	0.24220	-0.09250	0.08140	0.05910	0.22190	1.53000	1.10100	#	c,c1,c,hc
dihedral_coeff	2	ebt	0.00000	0.00000	0.00000	0.00000	0.00000	0.00000	1.53000	0.96000	#	c,c1,oh,h
dihedral_coeff	3	ebt	0.24860	0.24220	-0.09250	0.08140	0.05910	0.22190	1.53000	1.10100	#	c,c3h,c,hc
dihedral_coeff	4	ebt	-0.31900	0.44110	-0.71740	1.15380	0.84090	-0.91380	1.53000	1.42000	#	c,c3h,c,o3e
dihedral_coeff	5	ebt	-0.24560	1.05170	-0.77950	0.47410	1.26350	0.55760	1.53000	1.42000	#	c,c3h,o3e,c
dihedral_coeff	6	ebt	-0.16200	0.15640	-1.14080	-0.60540	1.33390	0.96480	1.42000	1.10100	#	c,o3e,c3h,hc
dihedral_coeff	7	ebt	-0.60540	1.33390	0.96480	-0.16200	0.15640	-1.14080	1.42000	1.10100	#	c3h,o3e,c,hc
dihedral_coeff	8	ebt	0.00000	0.00000	0.00000	0.00000	0.00000	0.00000	0.96000	1.10100	#	h,oh,c1,hc
dihedral_coeff	9	ebt	0.21300	0.31200	0.07770	0.21300	0.31200	0.07770	1.10100	1.10100	#	hc,c,c1,hc
dihedral_coeff	10	ebt	0.96810	0.95510	0.04360	0.59030	0.66690	0.85840	1.10100	1.42000	#	hc,c,c1,oh
dihedral_coeff	11	ebt	0.21300	0.31200	0.07770	0.21300	0.31200	0.07770	1.10100	1.10100	#	hc,c,c3h,hc
dihedral_coeff	12	ebt	0.96810	0.95510	0.04360	0.59030	0.66690	0.85840	1.10100	1.42000	#	hc,c,c3h,o3e
dihedral_coeff	13	ebt	0.96810	0.95510	0.04360	0.59030	0.66690	0.85840	1.10100	1.42000	#	hc,c3h,c,o3e
dihedral_coeff	14	ebt	-0.31900	0.44110	-0.71740	1.15380	0.84090	-0.91380	1.53000	1.42000	#	c,c1,c,oc
dihedral_coeff	15	ebt	-0.24560	1.05170	-0.77950	0.47410	1.26350	0.55760	1.53000	1.42000	#	c,c1,oc,c
dihedral_coeff	16	ebt	-0.16200	0.15640	-1.14080	-0.60540	1.33390	0.96480	1.42000	1.10100	#	c,oc,c1,hc
dihedral_coeff	17	ebt	-0.24560	1.05170	-0.77950	0.47410	1.26350	0.55760	1.53000	1.42000	#	c1,c,oc,c1
dihedral_coeff	18	ebt	-0.60540	1.33390	0.96480	-0.16200	0.15640	-1.14080	1.42000	1.10100	#	c1,oc,c,hc
dihedral_coeff	19	ebt	0.96810	0.95510	0.04360	0.59030	0.66690	0.85840	1.10100	1.42000	#	hc,c,c1,oc
dihedral_coeff	20	ebt	0.96810	0.95510	0.04360	0.59030	0.66690	0.85840	1.10100	1.42000	#	hc,c1,c,oc
dihedral_coeff	21	ebt	1.01650	0.75530	-0.46090	1.01650	0.75530	-0.46090	1.42000	1.42000	#	oc,c,c1,oh

# AngleTorsion Coeffs

dihedral_coeff	1	at	-0.24540	0.00000	-0.11360	0.31130	0.45160	-0.19880	112.67000	110.77000	#	c,c1,c,hc
dihedral_coeff	2	at	0.00000	0.00000	0.00000	0.00000	0.00000	0.00000	111.27000	109.00000	#	c,c1,oh,h
dihedral_coeff	3	at	-0.24540	0.00000	-0.11360	0.31130	0.45160	-0.19880	112.67000	110.77000	#	c,c3h,c,hc
dihedral_coeff	4	at	0.56230	-0.30410	-0.40150	0.96720	-0.75660	-1.23310	112.67000	111.27000	#	c,c3h,c,o3e
dihedral_coeff	5	at	-2.74660	1.48770	-0.89550	0.56760	0.94500	0.07030	111.27000	104.50000	#	c,c3h,o3e,c
dihedral_coeff	6	at	-0.77770	0.43400	-0.66530	-1.82340	1.63930	0.51440	104.50000	108.72800	#	c,o3e,c3h,hc
dihedral_coeff	7	at	-1.82340	1.63930	0.51440	-0.77770	0.43400	-0.66530	104.50000	108.72800	#	c3h,o3e,c,hc
dihedral_coeff	8	at	0.00000	0.00000	0.00000	0.00000	0.00000	0.00000	109.00000	108.72800	#	h,oh,c1,hc
dihedral_coeff	9	at	-0.80850	0.55690	-0.24660	-0.80850	0.55690	-0.24660	110.77000	110.77000	#	hc,c,c1,hc
dihedral_coeff	10	at	2.36680	2.49200	-1.01220	-0.18920	0.49180	0.72730	110.77000	111.27000	#	hc,c,c1,oh
dihedral_coeff	11	at	-0.80850	0.55690	-0.24660	-0.80850	0.55690	-0.24660	110.77000	110.77000	#	hc,c,c3h,hc
dihedral_coeff	12	at	2.36680	2.49200	-1.01220	-0.18920	0.49180	0.72730	110.77000	111.27000	#	hc,c,c3h,o3e
dihedral_coeff	13	at	2.36680	2.49200	-1.01220	-0.18920	0.49180	0.72730	110.77000	111.27000	#	hc,c3h,c,o3e
dihedral_coeff	14	at	0.56230	-0.30410	-0.40150	0.96720	-0.75660	-1.23310	112.67000	111.27000	#	c,c1,c,oc
dihedral_coeff	15	at	-2.74660	1.48770	-0.89550	0.56760	0.94500	0.07030	111.27000	104.50000	#	c,c1,oc,c
dihedral_coeff	16	at	-0.77770	0.43400	-0.66530	-1.82340	1.63930	0.51440	104.50000	108.72800	#	c,oc,c1,hc
dihedral_coeff	17	at	-2.74660	1.48770	-0.89550	0.56760	0.94500	0.07030	111.27000	104.50000	#	c1,c,oc,c1
dihedral_coeff	18	at	-1.82340	1.63930	0.51440	-0.77770	0.43400	-0.66530	104.50000	108.72800	#	c1,oc,c,hc
dihedral_coeff	19	at	2.36680	2.49200	-1.01220	-0.18920	0.49180	0.72730	110.77000	111.27000	#	hc,c,c1,oc
dihedral_coeff	20	at	2.36680	2.49200	-1.01220	-0.18920	0.49180	0.72730	110.77000	111.27000	#	hc,c1,c,oc
dihedral_coeff	21	at	0.55110	0.97370	-0.66730	0.55110	0.97370	-0.66730	111.27000	111.27000	#	oc,c,c1,oh

# AngleAngleTorsion Coeffs

dihedral_coeff	1	aat	-16.16400	112.67000	110.77000	#	c,c1,c,hc
dihedral_coeff	2	aat	0.00000	111.27000	109.00000	#	c,c1,oh,h
dihedral_coeff	3	aat	-16.16400	112.67000	110.77000	#	c,c3h,c,hc
dihedral_coeff	4	aat	-29.04200	112.67000	111.27000	#	c,c3h,c,o3e
dihedral_coeff	5	aat	-19.00590	111.27000	104.50000	#	c,c3h,o3e,c
dihedral_coeff	6	aat	-16.44380	104.50000	108.72800	#	c,o3e,c3h,hc
dihedral_coeff	7	aat	-16.44380	104.50000	108.72800	#	c3h,o3e,c,hc
dihedral_coeff	8	aat	0.00000	109.00000	108.72800	#	h,oh,c1,hc
dihedral_coeff	9	aat	-12.56400	110.77000	110.77000	#	hc,c,c1,hc
dihedral_coeff	10	aat	-20.20060	110.77000	111.27000	#	hc,c,c1,oh
dihedral_coeff	11	aat	-12.56400	110.77000	110.77000	#	hc,c,c3h,hc
dihedral_coeff	12	aat	-20.20060	110.77000	111.27000	#	hc,c,c3h,o3e
dihedral_coeff	13	aat	-20.20060	110.77000	111.27000	#	hc,c3h,c,o3e
dihedral_coeff	14	aat	-29.04200	112.67000	111.27000	#	c,c1,c,oc
dihedral_coeff	15	aat	-19.00590	111.27000	104.50000	#	c,c1,oc,c
dihedral_coeff	16	aat	-16.44380	104.50000	108.72800	#	c,oc,c1,hc
dihedral_coeff	17	aat	-19.00590	111.27000	104.50000	#	c1,c,oc,c1
dihedral_coeff	18	aat	-16.44380	104.50000	108.72800	#	c1,oc,c,hc
dihedral_coeff	19	aat	-20.20060	110.77000	111.27000	#	hc,c,c1,oc
dihedral_coeff	20	aat	-20.20060	110.77000	111.27000	#	hc,c1,c,oc
dihedral_coeff	21	aat	-14.04840	111.27000	111.27000	#	oc,c,c1,oh

# BondBond13 Coeffs

dihedral_coeff	1	bb13	0.00000	1.53000	1.10100	#	c,c1,c,hc
dihedral_coeff	2	bb13	0.00000	1.53000	0.96000	#	c,c1,oh,h
dihedral_coeff	3	bb13	0.00000	1.53000	1.10100	#	c,c3h,c,hc
dihedral_coeff	4	bb13	0.00000	1.53000	1.42000	#	c,c3h,c,o3e
dihedral_coeff	5	bb13	0.00000	1.53000	1.42000	#	c,c3h,o3e,c
dihedral_coeff	6	bb13	0.00000	1.42000	1.10100	#	c,o3e,c3h,hc
dihedral_coeff	7	bb13	0.00000	1.42000	1.10100	#	c3h,o3e,c,hc
dihedral_coeff	8	bb13	0.00000	0.96000	1.10100	#	h,oh,c1,hc
dihedral_coeff	9	bb13	0.00000	1.10100	1.10100	#	hc,c,c1,hc
dihedral_coeff	10	bb13	0.00000	1.10100	1.42000	#	hc,c,c1,oh
dihedral_coeff	11	bb13	0.00000	1.10100	1.10100	#	hc,c,c3h,hc
dihedral_coeff	12	bb13	0.00000	1.10100	1.42000	#	hc,c,c3h,o3e
dihedral_coeff	13	bb13	0.00000	1.10100	1.42000	#	hc,c3h,c,o3e
dihedral_coeff	14	bb13	0.00000	1.53000	1.42000	#	c,c1,c,oc
dihedral_coeff	15	bb13	0.00000	1.53000	1.42000	#	c,c1,oc,c
dihedral_coeff	16	bb13	0.00000	1.42000	1.10100	#	c,oc,c1,hc
dihedral_coeff	17	bb13	0.00000	1.53000	1.42000	#	c1,c,oc,c1
dihedral_coeff	18	bb13	0.00000	1.42000	1.10100	#	c1,oc,c,hc
dihedral_coeff	19	bb13	0.00000	1.10100	1.42000	#	hc,c,c1,oc
dihedral_coeff	20	bb13	0.00000	1.10100	1.42000	#	hc,c1,c,oc
dihedral_coeff	21	bb13	0.00000	1.42000	1.42000	#	oc,c,c1,oh

# Improper Coeffs

improper_coeff	1	0.00000	0.00000	#	c,c1,hc,hc
improper_coeff	2	0.00000	0.00000	#	c,c3h,hc,hc
improper_coeff	3	0.00000	0.00000	#	c,c3h,o3e,hc
improper_coeff	4	0.00000	0.00000	#	c,hc,hc,hc
improper_coeff	5	0.00000	0.00000	#	c,hc,hc,o3e
improper_coeff	6	0.00000	0.00000	#	c1,c,c,hc
improper_coeff	7	0.00000	0.00000	#	c1,c,c,oh
improper_coeff	8	0.00000	0.00000	#	c1,c,oh,hc
improper_coeff	9	0.00000	0.00000	#	c3h,c,c,hc
improper_coeff	10	0.00000	0.00000	#	c3h,c,c,o3e
improper_coeff	11	0.00000	0.00000	#	c3h,c,hc,o3e
improper_coeff	12	0.00000	0.00000	#	c,c1,oc,hc
improper_coeff	13	0.00000	0.00000	#	c,hc,hc,oc
improper_coeff	14	0.00000	0.00000	#	c1,c,c,oc
improper_coeff	15	0.00000	0.00000	#	c1,c,hc,oc
improper_coeff	16	0.00000	0.00000	#	c1,c,hc,oh

# AngleAngle Coeffs

improper_coeff	1	aa	0.00000	-0.48250	0.00000	110.77000	110.77000	107.66000	#	c,c1,hc,hc
improper_coeff	2	aa	0.00000	-0.48250	0.00000	110.77000	110.77000	107.66000	#	c,c3h,hc,hc
improper_coeff	3	aa	0.00000	2.59260	3.91770	111.27000	110.77000	108.72800	#	c,c3h,o3e,hc
improper_coeff	4	aa	-0.31570	-0.31570	-0.31570	107.66000	107.66000	107.66000	#	c,hc,hc,hc
improper_coeff	5	aa	2.42590	2.42590	2.12830	107.66000	108.72800	108.72800	#	c,hc,hc,o3e
improper_coeff	6	aa	-1.31990	-1.31990	0.11840	112.67000	110.77000	110.77000	#	c1,c,c,hc
improper_coeff	7	aa	-0.83300	-0.83300	-3.57440	112.67000	111.27000	111.27000	#	c1,c,c,oh
improper_coeff	8	aa	0.16890	2.59260	3.91770	111.27000	110.77000	108.72800	#	c1,c,oh,hc
improper_coeff	9	aa	-1.31990	-1.31990	0.11840	112.67000	110.77000	110.77000	#	c3h,c,c,hc
improper_coeff	10	aa	-0.83300	-0.83300	-3.57440	112.67000	111.27000	111.27000	#	c3h,c,c,o3e
improper_coeff	11	aa	3.91770	2.59260	0.16890	110.77000	111.27000	108.72800	#	c3h,c,hc,o3e
improper_coeff	12	aa	0.00000	2.59260	3.91770	111.27000	110.77000	108.72800	#	c,c1,oc,hc
improper_coeff	13	aa	2.42590	2.42590	2.12830	107.66000	108.72800	108.72800	#	c,hc,hc,oc
improper_coeff	14	aa	-0.83300	-0.83300	-3.57440	112.67000	111.27000	111.27000	#	c1,c,c,oc
improper_coeff	15	aa	3.91770	2.59260	0.16890	110.77000	111.27000	108.72800	#	c1,c,hc,oc
improper_coeff	16	aa	3.91770	2.59260	0.16890	110.77000	111.27000	108.72800	#	c1,c,hc,oh

velocity all create 300.0 4928459 dist gaussian

molecule mol1 pre-molecule.data
Read molecule template mol1:
  1 molecules
  0 fragments
  22 atoms with max type 7
  21 bonds with max type 9
  38 angles with max type 15
  42 dihedrals with max type 13
  24 impropers with max type 11
molecule mol2 post-molecule.data
Read molecule template mol2:
  1 molecules
  0 fragments
  22 atoms with max type 8
  21 bonds with max type 11
  38 angles with max type 20
  45 dihedrals with max type 21
  24 impropers with max type 16

thermo 50


fix rxns all bond/react stabilization yes statted_grp .03   react rxn1_stp1 all 1 0.0 5 mol1 mol2 automap.data
WARNING: Fix bond/react: The BondingIDs section title has been deprecated. Please use InitiatorIDs instead. (../fix_bond_react.cpp:3956)
dynamic group bond_react_MASTER_group defined
dynamic group statted_grp_REACT defined


fix 1 statted_grp_REACT nvt temp 300 300 100

thermo_style custom step temp f_rxns[1]

dump 4a all custom 100 dump.myvel.lammpsbin id type x y z vx vy vz

run 200000

CITE-CITE-CITE-CITE-CITE-CITE-CITE-CITE-CITE-CITE-CITE-CITE-CITE

Your simulation uses code contributions which should be cited:

- fix bond/react: reacter.org doi:10.1016/j.polymer.2017.09.038, doi:10.1021/acs.macromol.0c02012

@Article{Gissinger17,
 author = {J. R. Gissinger and B. D. Jensen and K. E. Wise},
 title = {Modeling Chemical Reactions in Classical Molecular Dynamics Simulations},
 journal = {Polymer},
 year =    2017,
 volume =  128,
 pages =   {211--217}
}

@Article{Gissinger20,
 author = {J. R. Gissinger, B. D. Jensen, K. E. Wise},
 title = {{REACTER}: A Heuristic Method for Reactive Molecular Dynamics},
 journal = {Macromolecules},
 year =    2020,
 volume =  53,
 number =  22,
 pages =   {9953--9961}
}

CITE-CITE-CITE-CITE-CITE-CITE-CITE-CITE-CITE-CITE-CITE-CITE-CITE

Generated 28 of 28 mixed pair_coeff terms from sixthpower/geometric mixing rule
Neighbor list info ...
  update: every = 1 steps, delay = 0 steps, check = yes
  max neighbors/atom: 2000, page size: 100000
  master list distance cutoff = 10
  ghost atom cutoff = 10
  binsize = 5, bins = 6 6 6
  2 neighbor lists, perpetual/occasional/extra = 1 1 0
  (1) pair lj/class2, perpetual
      attributes: half, newton on
      pair build: half/bin/newton
      stencil: half/bin/3d
      bin: standard
  (2) fix bond/react, occasional, copy from (1)
      attributes: half, newton on
      pair build: copy
      stencil: none
      bin: none
Per MPI rank memory allocation (min/avg/max) = 24.39 | 24.39 | 24.39 Mbytes
   Step          Temp        f_rxns[1]   
         0   300            0            
        50   347.53357      0            
       100   263.13926      0            
       150   296.91146      0            
       200   316.5656       0            
       250   361.2782       0            
       300   332.39033      0            
       350   384.3484       0            
       400   373.63533      0            
       450   305.93755      0            
       500   259.01686      0            
       550   293.68626      0            
       600   263.18238      0            
       650   352.4861       0            
       700   316.16691      0            
       750   296.05493      0            
       800   274.65175      0            
       850   360.50369      0            
       900   336.46106      0            
       950   399.55262      0            
      1000   277.16458      0            
      1050   274.61041      0            
      1100   323.24227      0            
      1150   239.60704      0            
      1200   241.57785      0            
      1250   256.36078      0            
      1300   318.7418       0            
      1350   337.53643      0            
      1400   414.05694      0            
      1450   418.66325      0            
      1500   286.2328       0            
      1550   332.06056      0            
      1600   334.78564      0            
      1650   323.88389      0            
      1700   274.49487      0            
      1750   272.9147       0            
      1800   320.87365      0            
      1850   298.74234      0            
      1900   388.78656      0            
      1950   350.82449      0            
      2000   405.35039      0            
      2050   364.34838      0            
      2100   305.06258      0            
      2150   273.0838       0            
      2200   232.37188      0            
      2250   231.00201      0            
      2300   264.30733      0            
      2350   268.8508       0            
      2400   339.71467      0            
      2450   317.3641       0            
      2500   404.57231      0            
      2550   213.91269      0            
      2600   420.53468      0            
      2650   373.08863      0            
      2700   362.10199      0            
      2750   386.45389      0            
      2800   302.97845      0            
      2850   313.89388      0            
      2900   324.42457      0            
      2950   273.6585       0            
      3000   261.27399      0            
      3050   274.0623       0            
      3100   315.423        0            
      3150   376.28142      0            
      3200   415.16503      0            
      3250   324.09731      0            
      3300   349.93636      0            
      3350   321.66157      0            
      3400   287.46652      0            
      3450   257.08232      0            
      3500   293.66456      0            
      3550   291.2832       0            
      3600   223.27232      0            
      3650   258.77026      0            
      3700   334.18669      0            
      3750   326.02056      0            
      3800   456.0825       0            
      3850   361.31773      0            
      3900   415.42601      0            
      3950   273.3818       0            
      4000   336.25688      0            
      4050   297.68693      0            
      4100   272.14645      0            
      4150   321.62447      0            
      4200   243.91242      0            
      4250   263.59997      0            
      4300   285.25798      0            
      4350   304.04055      0            
      4400   376.91287      0            
      4450   300.88659      0            
      4500   415.57469      0            
      4550   310.67269      0            
      4600   213.75775      0            
      4650   282.57377      0            
      4700   253.18732      0            
      4750   243.52109      0            
      4800   306.4674       0            
      4850   304.10803      0            
      4900   323.42042      0            
      4950   364.33085      0            
      5000   379.8621       0            
      5050   354.22523      0            
      5100   295.7809       0            
      5150   253.78278      0            
      5200   177.8768       0            
      5250   251.27821      0            
      5300   252.15827      0            
      5350   305.74811      0            
      5400   279.13883      0            
      5450   384.77103      0            
      5500   380.26921      0            
      5550   326.91785      0            
      5600   291.37613      0            
      5650   345.35694      0            
      5700   261.90764      0            
      5750   277.01724      0            
      5800   271.59307      0            
      5850   239.36714      0            
      5900   222.42571      0            
      5950   273.68052      0            
      6000   215.66346      0            
      6050   237.30576      0            
      6100   279.05044      0            
      6150   244.17835      0            
      6200   274.93831      0            
      6250   316.75857      0            
      6300   355.5538       0            
      6350   393.93095      0            
      6400   299.29371      0            
      6450   320.6648       0            
      6500   227.92075      0            
      6550   256.21173      0            
      6600   217.32048      0            
      6650   230.35997      0            
      6700   232.08626      0            
      6750   264.1729       0            
      6800   347.80927      0            
      6850   293.24413      0            
      6900   298.45075      0            
      6950   314.77217      0            
      7000   377.08948      0            
      7050   237.5913       0            
      7100   350.38321      0            
      7150   287.18529      0            
      7200   202.11753      0            
      7250   269.5469       0            
      7300   219.5995       0            
      7350   235.42388      0            
      7400   275.43022      0            
      7450   345.31955      0            
      7500   334.1726       0            
      7550   295.45332      0            
      7600   299.91224      0            
      7650   330.1433       0            
      7700   356.98792      0            
      7750   281.60987      0            
      7800   217.77828      0            
      7850   198.74165      0            
      7900   200.33639      0            
      7950   213.88573      0            
      8000   159.01044      0            
      8050   205.41077      0            
      8100   309.44183      0            
      8150   265.85789      0            
      8200   255.51011      0            
      8250   305.67288      0            
      8300   370.3017       0            
      8350   248.16584      0            
      8400   297.39109      0            
      8450   343.03432      0            
      8500   259.47528      0            
      8550   239.48263      0            
      8600   231.28995      0            
      8650   229.21192      0            
      8700   214.4362       0            
      8750   251.64568      0            
      8800   250.59966      0            
      8850   273.23945      0            
      8900   380.04541      0            
      8950   319.78079      0            
      9000   305.74731      0            
      9050   251.22836      0            
      9100   297.68084      0            
      9150   275.93086      0            
      9200   246.5302       0            
      9250   239.64519      0            
      9300   190.97879      0            
      9350   203.73278      0            
      9400   233.58278      0            
      9450   237.79191      0            
      9500   301.41883      0            
      9550   330.21464      0            
      9600   373.19176      0            
      9650   317.92051      0            
      9700   336.21215      0            
      9750   290.76012      0            
      9800   228.67987      0            
      9850   319.08299      0            
      9900   242.74514      0            
      9950   250.83356      0            
     10000   244.70557      0            
     10050   274.48948      0            
     10100   292.57586      0            
     10150   248.98309      0            
     10200   362.88389      0            
     10250   293.40124      0            
     10300   293.63092      0            
     10350   361.2649       0            
     10400   308.34108      0            
     10450   253.40917      0            
     10500   266.19681      0            
     10550   243.32435      0            
     10600   247.67064      0            
     10650   298.62772      0            
     10700   385.93498      0            
     10750   363.96315      0            
     10800   373.71483      0            
     10850   286.39944      0            
     10900   301.4648       0            
     10950   324.35993      0            
     11000   279.596        0            
     11050   277.08453      0            
     11100   340.11698      0            
     11150   298.7473       0            
     11200   296.17441      0            
     11250   303.58112      0            
     11300   363.67616      0            
     11350   401.82518      0            
     11400   447.38309      0            
     11450   423.3578       0            
     11500   299.48319      0            
     11550   348.71414      0            
     11600   332.47855      0            
     11650   337.85616      0            
     11700   246.24192      0            
     11750   229.39603      0            
     11800   297.54246      0            
     11850   291.33063      0            
     11900   282.78153      0            
     11950   337.07314      0            
     12000   303.88432      0            
     12050   361.21789      0            
     12100   384.41409      0            
     12150   366.10443      0            
     12200   344.22936      0            
     12250   346.69228      0            
     12300   245.6492       0            
     12350   344.52464      0            
     12400   318.01845      0            
     12450   329.54741      0            
     12500   315.08195      0            
     12550   267.80597      0            
     12600   308.61983      0            
     12650   273.77217      0            
     12700   287.57027      0            
     12750   201.11068      0            
     12800   213.5265       0            
     12850   205.85188      0            
     12900   277.17826      0            
     12950   313.56548      0            
     13000   351.79267      0            
     13050   333.32142      0            
     13100   337.29241      0            
     13150   341.54704      0            
     13200   264.29804      0            
     13250   229.91364      0            
     13300   231.34227      0            
     13350   306.14607      0            
     13400   229.40941      0            
     13450   167.10691      0            
     13500   163.87694      0            
     13550   234.65147      0            
     13600   246.50054      0            
     13650   265.37161      0            
     13700   204.14821      0            
     13750   308.8805       0            
     13800   285.40166      0            
     13850   384.72116      0            
     13900   293.48038      0            
     13950   354.26144      0            
     14000   354.02995      0            
     14050   1538.6503      1            
     14100   1979.9241      1            
     14150   1211.9161      1            
     14200   660.2016       1            
     14250   534.65917      1            
     14300   398.20931      1            
     14350   235.9572       1            
     14400   196.25699      1            
     14450   179.44541      1            
     14500   249.29463      1            
     14550   189.04248      1            
     14600   204.29062      1            
     14650   313.04645      1            
     14700   289.29627      1            
     14750   345.90682      1            
     14800   248.06178      1            
     14850   457.88295      1            
     14900   331.99898      1            
     14950   356.51266      1            
     15000   304.56238      1            
     15050   207.50614      1            
     15100   213.38347      1            
     15150   228.10137      1            
     15200   213.71365      1            
     15250   275.71066      1            
     15300   299.67333      1            
     15350   340.6159       1            
     15400   390.66742      1            
     15450   397.69651      1            
     15500   332.41321      1            
     15550   322.22929      1            
     15600   231.18337      1            
     15650   328.29202      1            
     15700   249.16117      1            
     15750   293.0354       1            
     15800   253.02753      1            
     15850   262.6789       1            
     15900   345.68627      1            
     15950   245.76237      1            
     16000   339.28199      1            
     16050   318.44222      1            
     16100   382.91082      1            
     16150   342.23246      1            
     16200   346.59699      1            
     16250   247.48516      1            
     16300   220.48583      1            
     16350   308.18067      1            
     16400   268.09589      1            
     16450   240.83929      1            
     16500   253.53997      1            
     16550   337.12678      1            
     16600   318.89303      1            
     16650   333.13147      1            
     16700   318.33004      1            
     16750   320.91252      1            
     16800   251.51898      1            
     16850   306.75085      1            
     16900   261.86118      1            
     16950   296.29439      1            
     17000   204.45868      1            
     17050   385.50746      1            
     17100   208.19336      1            
     17150   301.14625      1            
     17200   314.05019      1            
     17250   390.27532      1            
     17300   337.06769      1            
     17350   278.49368      1            
     17400   304.33925      1            
     17450   300.00054      1            
     17500   301.76007      1            
     17550   333.64009      1            
     17600   286.82087      1            
     17650   214.13877      1            
     17700   390.6295       1            
     17750   345.97386      1            
     17800   343.79736      1            
     17850   337.96713      1            
     17900   292.84361      1            
     17950   306.70486      1            
     18000   328.43495      1            
     18050   314.97128      1            
     18100   303.97806      1            
     18150   392.01884      1            
     18200   288.54263      1            
     18250   258.95254      1            
     18300   280.92095      1            
     18350   216.06502      1            
     18400   310.23311      1            
     18450   237.68694      1            
     18500   257.65248      1            
     18550   288.8125       1            
     18600   303.30912      1            
     18650   326.65882      1            
     18700   227.32616      1            
     18750   324.69598      1            
     18800   375.43946      1            
     18850   217.91353      1            
     18900   283.36615      1            
     18950   200.50231      1            
     19000   271.04122      1            
     19050   228.0233       1            
     19100   329.16691      1            
     19150   335.00704      1            
     19200   385.04191      1            
     19250   336.28139      1            
     19300   322.81966      1            
     19350   320.2211       1            
     19400   352.83159      1            
     19450   240.35823      1            
     19500   199.29922      1            
     19550   255.43902      1            
     19600   307.34607      1            
     19650   279.83454      1            
     19700   343.20415      1            
     19750   327.4685       1            
     19800   377.16588      1            
     19850   343.35251      1            
     19900   327.60145      1            
     19950   263.48201      1            
     20000   236.87519      1            
     20050   296.97615      1            
     20100   365.36171      1            
     20150   231.96967      1            
     20200   248.22377      1            
     20250   239.25928      1            
     20300   266.25444      1            
     20350   324.0652       1            
     20400   284.24482      1            
     20450   254.83032      1            
     20500   319.11574      1            
     20550   296.95966      1            
     20600   357.62076      1            
     20650   368.97284      1            
     20700   326.71297      1            
     20750   257.5768       1            
     20800   239.85801      1            
     20850   279.9243       1            
     20900   264.56297      1            
     20950   216.60151      1            
     21000   271.77166      1            
     21050   292.75775      1            
     21100   383.07662      1            
     21150   229.99734      1            
     21200   405.82802      1            
     21250   277.40672      1            
     21300   292.81148      1            
     21350   283.18563      1            
     21400   320.40988      1            
     21450   343.83824      1            
     21500   400.95742      1            
     21550   292.43868      1            
     21600   226.16999      1            
     21650   286.93121      1            
     21700   207.70348      1            
     21750   282.74778      1            
     21800   268.67645      1            
     21850   224.0135       1            
     21900   275.29388      1            
     21950   365.99354      1            
     22000   260.95336      1            
     22050   316.60346      1            
     22100   381.29886      1            
     22150   236.30775      1            
     22200   243.90518      1            
     22250   284.8756       1            
     22300   221.65606      1            
     22350   266.42011      1            
     22400   267.3023       1            
     22450   303.85007      1            
     22500   345.51304      1            
     22550   378.41175      1            
     22600   242.59326      1            
     22650   298.19435      1            
     22700   385.67458      1            
     22750   348.31665      1            
     22800   226.3718       1            
     22850   191.5457       1            
     22900   205.26474      1            
     22950   215.51761      1            
     23000   293.33438      1            
     23050   248.59989      1            
     23100   270.22335      1            
     23150   278.75773      1            
     23200   306.8122       1            
     23250   382.30966      1            
     23300   306.48167      1            
     23350   358.25812      1            
     23400   360.18521      1            
     23450   291.90628      1            
     23500   312.6506       1            
     23550   272.81432      1            
     23600   333.23632      1            
     23650   320.83282      1            
     23700   232.57363      1            
     23750   226.47666      1            
     23800   261.84167      1            
     23850   281.5297       1            
     23900   293.07486      1            
     23950   309.34831      1            
     24000   313.37934      1            
     24050   263.22893      1            
     24100   404.08472      1            
     24150   358.01542      1            
     24200   227.51025      1            
     24250   283.00815      1            
     24300   220.83295      1            
     24350   294.32913      1            
     24400   316.9382       1            
     24450   294.84757      1            
     24500   301.96062      1            
     24550   379.68936      1            
     24600   320.64305      1            
     24650   338.68716      1            
     24700   341.84951      1            
     24750   346.30773      1            
     24800   332.39903      1            
     24850   297.14629      1            
     24900   317.69422      1            
     24950   318.42355      1            
     25000   266.53568      1            
     25050   237.9707       1            
     25100   286.68781      1            
     25150   204.44434      1            
     25200   237.30542      1            
     25250   293.54333      1            
     25300   238.66243      1            
     25350   336.49766      1            
     25400   259.11085      1            
     25450   244.85511      1            
     25500   356.44659      1            
     25550   317.30332      1            
     25600   305.91762      1            
     25650   250.69108      1            
     25700   269.54642      1            
     25750   252.06422      1            
     25800   257.48264      1            
     25850   213.33177      1            
     25900   277.38158      1            
     25950   312.15703      1            
     26000   325.04066      1            
     26050   277.78568      1            
     26100   294.17348      1            
     26150   314.89512      1            
     26200   251.91514      1            
     26250   245.78719      1            
     26300   404.19858      1            
     26350   580.9623       1            
     26400   467.66216      1            
     26450   401.87427      1            
     26500   352.98433      1            
     26550   305.84456      1            
     26600   289.07907      1            
     26650   311.93978      1            
     26700   305.30388      1            
     26750   290.08758      1            
     26800   229.11599      1            
     26850   233.27688      1            
     26900   398.49911      1            
     26950   341.18783      1            
     27000   459.80915      1            
     27050   368.57107      1            
     27100   360.78776      1            
     27150   293.40817      1            
     27200   256.91793      1            
     27250   311.8823       1            
     27300   335.39683      1            
     27350   361.86226      1            
     27400   248.17079      1            
     27450   243.06563      1            
     27500   225.59742      1            
     27550   218.77871      1            
     27600   221.12845      1            
     27650   222.94299      1            
     27700   261.56292      1            
     27750   293.53124      1            
     27800   329.76465      1            
     27850   345.84403      1            
     27900   292.42112      1            
     27950   339.85499      1            
     28000   259.53057      1            
     28050   252.37688      1            
     28100   298.02033      1            
     28150   354.80284      1            
     28200   378.9477       1            
     28250   383.88562      1            
     28300   278.58901      1            
     28350   292.78502      1            
     28400   324.67775      1            
     28450   275.94408      1            
     28500   252.04523      1            
     28550   313.42214      1            
     28600   342.91624      1            
     28650   281.96896      1            
     28700   321.85277      1            
     28750   328.89475      1            
     28800   326.38973      1            
     28850   326.08089      1            
     28900   235.71266      1            
     28950   307.64044      1            
     29000   228.52285      1            
     29050   277.13479      1            
     29100   346.81827      1            
     29150   322.25427      1            
     29200   335.60492      1            
     29250   265.04271      1            
     29300   296.25696      1            
     29350   297.89973      1            
     29400   203.76684      1            
     29450   243.18292      1            
     29500   277.99394      1            
     29550   291.37996      1            
     29600   238.34763      1            
     29650   241.08409      1            
     29700   260.42488      1            
     29750   326.44192      1            
     29800   241.1956       1            
     29850   441.48447      1            
     29900   372.3741       1            
     29950   293.15156      1            
     30000   294.37058      1            
     30050   269.21158      1            
     30100   236.23684      1            
     30150   252.07252      1            
     30200   228.08187      1            
     30250   197.94489      1            
     30300   328.12687      1            
     30350   344.61398      1            
     30400   311.29999      1            
     30450   305.09847      1            
     30500   371.33277      1            
     30550   235.85043      1            
     30600   279.41769      1            
     30650   249.89043      1            
     30700   270.65504      1            
     30750   274.89502      1            
     30800   300.33017      1            
     30850   284.41269      1            
     30900   277.64873      1            
     30950   346.15999      1            
     31000   272.89724      1            
     31050   373.50506      1            
     31100   332.60133      1            
     31150   277.62158      1            
     31200   307.19131      1            
     31250   331.17078      1            
     31300   283.46296      1            
     31350   333.22905      1            
     31400   365.74256      1            
     31450   318.7666       1            
     31500   351.53489      1            
     31550   241.17572      1            
     31600   289.91124      1            
     31650   251.89126      1            
     31700   277.18479      1            
     31750   252.88581      1            
     31800   280.66647      1            
     31850   371.48186      1            
     31900   323.53368      1            
     31950   471.51685      1            
     32000   372.19987      1            
     32050   354.27327      1            
     32100   345.44294      1            
     32150   347.67017      1            
     32200   291.36532      1            
     32250   229.75136      1            
     32300   288.6193       1            
     32350   293.23227      1            
     32400   282.86891      1            
     32450   287.14049      1            
     32500   281.88781      1            
     32550   359.20305      1            
     32600   290.0418       1            
     32650   376.03593      1            
     32700   225.30525      1            
     32750   349.82851      1            
     32800   246.76516      1            
     32850   352.98623      1            
     32900   239.6993       1            
     32950   339.14562      1            
     33000   263.78227      1            
     33050   395.04282      1            
     33100   359.38563      1            
     33150   427.15001      1            
     33200   414.15082      1            
     33250   352.71466      1            
     33300   371.92332      1            
     33350   287.61697      1            
     33400   306.01631      1            
     33450   312.90917      1            
     33500   345.27436      1            
     33550   275.80562      1            
     33600   263.41234      1            
     33650   326.81474      1            
     33700   344.0037       1            
     33750   346.78699      1            
     33800   370.97598      1            
     33850   319.52123      1            
     33900   272.44986      1            
     33950   281.03025      1            
     34000   323.2682       1            
     34050   252.51331      1            
     34100   234.45001      1            
     34150   316.35512      1            
     34200   289.59778      1            
     34250   351.81589      1            
     34300   368.69371      1            
     34350   371.5049       1            
     34400   287.86391      1            
     34450   262.04628      1            
     34500   212.90924      1            
     34550   175.31558      1            
     34600   238.8492       1            
     34650   349.39712      1            
     34700   305.55608      1            
     34750   293.30683      1            
     34800   343.69749      1            
     34850   341.18286      1            
     34900   307.92574      1            
     34950   320.93156      1            
     35000   303.91121      1            
     35050   209.84717      1            
     35100   167.04459      1            
     35150   266.74773      1            
     35200   230.38731      1            
     35250   287.02102      1            
     35300   318.57561      1            
     35350   267.26487      1            
     35400   258.72432      1            
     35450   280.81826      1            
     35500   316.3745       1            
     35550   319.57543      1            
     35600   345.54107      1            
     35650   413.65221      1            
     35700   349.43079      1            
     35750   377.64441      1            
     35800   364.21836      1            
     35850   329.26916      1            
     35900   288.10632      1            
     35950   249.57937      1            
     36000   256.2329       1            
     36050   293.68741      1            
     36100   215.3514       1            
     36150   326.0661       1            
     36200   296.31866      1            
     36250   380.27074      1            
     36300   335.81392      1            
     36350   450.63368      1            
     36400   365.10884      1            
     36450   295.73924      1            
     36500   260.98217      1            
     36550   240.91135      1            
     36600   247.3909       1            
     36650   320.00158      1            
     36700   275.21138      1            
     36750   330.92234      1            
     36800   281.53609      1            
     36850   330.07107      1            
     36900   354.43873      1            
     36950   321.05764      1            
     37000   340.15838      1            
     37050   351.18534      1            
     37100   355.33708      1            
     37150   392.35318      1            
     37200   247.44012      1            
     37250   218.8038       1            
     37300   282.02343      1            
     37350   258.2106       1            
     37400   267.4482       1            
     37450   334.12072      1            
     37500   387.74959      1            
     37550   310.80367      1            
     37600   403.37746      1            
     37650   434.92771      1            
     37700   426.91071      1            
     37750   343.42865      1            
     37800   319.47523      1            
     37850   309.71318      1            
     37900   302.85716      1            
     37950   348.29709      1            
     38000   239.02078      1            
     38050   263.35592      1            
     38100   237.37584      1            
     38150   262.96664      1            
     38200   283.98228      1            
     38250   323.85425      1            
     38300   246.75317      1            
     38350   389.64355      1            
     38400   366.82379      1            
     38450   300.80089      1            
     38500   290.55473      1            
     38550   296.24815      1            
     38600   253.61153      1            
     38650   292.95091      1            
     38700   359.46734      1            
     38750   305.7362       1            
     38800   260.88466      1            
     38850   328.24748      1            
     38900   329.00941      1            
     38950   284.48557      1            
     39000   298.96542      1            
     39050   236.62256      1            
     39100   300.03573      1            
     39150   453.4997       1            
     39200   482.93528      1            
     39250   375.2932       1            
     39300   299.74475      1            
     39350   297.32358      1            
     39400   293.16922      1            
     39450   331.96828      1            
     39500   305.67095      1            
     39550   241.88882      1            
     39600   272.58819      1            
     39650   337.45351      1            
     39700   277.93698      1            
     39750   328.3383       1            
     39800   274.56724      1            
     39850   305.38033      1            
     39900   324.97355      1            
     39950   330.73022      1            
     40000   234.05969      1            
     40050   311.18806      1            
     40100   238.66507      1            
     40150   283.91492      1            
     40200   282.80646      1            
     40250   274.50045      1            
     40300   253.71574      1            
     40350   361.60096      1            
     40400   337.59642      1            
     40450   307.37046      1            
     40500   360.40231      1            
     40550   318.06212      1            
     40600   239.36426      1            
     40650   203.41077      1            
     40700   240.23957      1            
     40750   226.7016       1            
     40800   292.08736      1            
     40850   341.25921      1            
     40900   307.03392      1            
     40950   326.16964      1            
     41000   288.78336      1            
     41050   369.56619      1            
     41100   306.89547      1            
     41150   244.59298      1            
     41200   238.79084      1            
     41250   204.81179      1            
     41300   278.74253      1            
     41350   259.29168      1            
     41400   290.85262      1            
     41450   265.01467      1            
     41500   305.74762      1            
     41550   372.37176      1            
     41600   255.60336      1            
     41650   305.9902       1            
     41700   272.42682      1            
     41750   331.68404      1            
     41800   239.68232      1            
     41850   225.65753      1            
     41900   203.73008      1            
     41950   210.00759      1            
     42000   263.03345      1            
     42050   341.2043       1            
     42100   265.44468      1            
     42150   305.44887      1            
     42200   319.74963      1            
     42250   310.87352      1            
     42300   239.38919      1            
     42350   357.53743      1            
     42400   347.18821      1            
     42450   275.71294      1            
     42500   288.74202      1            
     42550   213.66564      1            
     42600   268.42825      1            
     42650   237.84074      1            
     42700   316.08036      1            
     42750   313.18541      1            
     42800   253.55367      1            
     42850   363.14589      1            
     42900   287.02274      1            
     42950   326.78974      1            
     43000   305.33138      1            
     43050   258.92259      1            
     43100   241.8622       1            
     43150   271.45786      1            
     43200   229.23239      1            
     43250   186.06986      1            
     43300   229.81273      1            
     43350   267.88851      1            
     43400   309.85843      1            
     43450   281.76218      1            
     43500   274.21686      1            
     43550   286.04289      1            
     43600   283.83779      1            
     43650   324.58679      1            
     43700   353.34882      1            
     43750   356.94046      1            
     43800   257.76769      1            
     43850   277.24019      1            
     43900   233.76053      1            
     43950   221.40241      1            
     44000   255.66353      1            
     44050   319.4688       1            
     44100   319.08349      1            
     44150   422.46244      1            
     44200   335.111        1            
     44250   299.70274      1            
     44300   297.10461      1            
     44350   218.9027       1            
     44400   282.12417      1            
     44450   289.53087      1            
     44500   291.48921      1            
     44550   336.17726      1            
     44600   233.38175      1            
     44650   354.32656      1            
     44700   292.52508      1            
     44750   389.27687      1            
     44800   311.261        1            
     44850   347.08104      1            
     44900   305.10355      1            
     44950   252.15658      1            
     45000   257.11878      1            
     45050   279.17463      1            
     45100   288.32528      1            
     45150   321.22018      1            
     45200   304.69327      1            
     45250   298.98392      1            
     45300   313.80323      1            
     45350   367.65084      1            
     45400   347.45735      1            
     45450   235.02749      1            
     45500   253.54863      1            
     45550   311.1418       1            
     45600   200.98645      1            
     45650   261.86477      1            
     45700   299.97902      1            
     45750   308.65746      1            
     45800   322.84307      1            
     45850   322.6917       1            
     45900   432.03385      1            
     45950   285.80354      1            
     46000   298.13477      1            
     46050   244.20173      1            
     46100   293.60242      1            
     46150   189.56664      1            
     46200   229.94265      1            
     46250   281.34104      1            
     46300   261.95646      1            
     46350   395.54383      1            
     46400   320.87371      1            
     46450   396.39234      1            
     46500   192.36497      1            
     46550   254.36486      1            
     46600   323.15552      1            
     46650   324.71467      1            
     46700   244.80974      1            
     46750   275.98857      1            
     46800   256.68521      1            
     46850   250.22902      1            
     46900   283.47069      1            
     46950   383.53496      1            
     47000   368.98132      1            
     47050   335.39449      1            
     47100   393.63624      1            
     47150   311.70379      1            
     47200   332.04582      1            
     47250   264.39846      1            
     47300   317.25474      1            
     47350   228.39082      1            
     47400   309.30168      1            
     47450   341.379        1            
     47500   360.326        1            
     47550   260.45991      1            
     47600   290.90711      1            
     47650   277.70661      1            
     47700   313.98176      1            
     47750   318.28954      1            
     47800   300.95944      1            
     47850   342.53605      1            
     47900   301.05368      1            
     47950   313.55678      1            
     48000   258.50503      1            
     48050   364.26167      1            
     48100   358.95869      1            
     48150   336.55162      1            
     48200   298.14039      1            
     48250   278.76846      1            
     48300   249.22107      1            
     48350   266.07712      1            
     48400   290.98782      1            
     48450   213.7669       1            
     48500   253.26558      1            
     48550   269.79662      1            
     48600   321.11677      1            
     48650   301.89822      1            
     48700   399.9065       1            
     48750   360.75295      1            
     48800   234.68726      1            
     48850   254.22884      1            
     48900   261.68594      1            
     48950   266.46835      1            
     49000   233.69134      1            
     49050   332.33996      1            
     49100   353.27283      1            
     49150   355.35003      1            
     49200   346.12181      1            
     49250   419.79447      1            
     49300   352.57652      1            
     49350   275.01597      1            
     49400   334.31859      1            
     49450   222.41642      1            
     49500   248.46979      1            
     49550   316.95624      1            
     49600   250.09066      1            
     49650   347.59301      1            
     49700   345.18897      1            
     49750   340.86549      1            
     49800   340.19461      1            
     49850   376.88951      1            
     49900   369.91443      1            
     49950   307.29755      1            
     50000   345.96082      1            
     50050   364.1074       1            
     50100   300.57743      1            
     50150   294.63283      1            
     50200   273.87225      1            
     50250   276.94132      1            
     50300   177.28095      1            
     50350   251.82195      1            
     50400   264.09267      1            
     50450   351.76196      1            
     50500   391.985        1            
     50550   253.29925      1            
     50600   368.05186      1            
     50650   275.88517      1            
     50700   283.28266      1            
     50750   263.47544      1            
     50800   282.21806      1            
     50850   291.59723      1            
     50900   330.98816      1            
     50950   234.76104      1            
     51000   254.9383       1            
     51050   315.15624      1            
     51100   402.98496      1            
     51150   331.93114      1            
     51200   369.67059      1            
     51250   274.23092      1            
     51300   275.07382      1            
     51350   214.35041      1            
     51400   282.7122       1            
     51450   296.35036      1            
     51500   258.72111      1            
     51550   276.49001      1            
     51600   327.28955      1            
     51650   305.51247      1            
     51700   404.00284      1            
     51750   320.97466      1            
     51800   395.20638      1            
     51850   268.50643      1            
     51900   281.22376      1            
     51950   210.02684      1            
     52000   276.42052      1            
     52050   332.34963      1            
     52100   335.21886      1            
     52150   348.11268      1            
     52200   418.85288      1            
     52250   282.60266      1            
     52300   363.76519      1            
     52350   177.31149      1            
     52400   256.69992      1            
     52450   223.25474      1            
     52500   215.47921      1            
     52550   292.38518      1            
     52600   299.67638      1            
     52650   301.99804      1            
     52700   306.0358       1            
     52750   320.58053      1            
     52800   310.17191      1            
     52850   305.43777      1            
     52900   337.18542      1            
     52950   274.0707       1            
     53000   293.72224      1            
     53050   287.67439      1            
     53100   227.43379      1            
     53150   229.15763      1            
     53200   212.91175      1            
     53250   217.31091      1            
     53300   268.21625      1            
     53350   223.74508      1            
     53400   343.58002      1            
     53450   296.01366      1            
     53500   325.31753      1            
     53550   304.36159      1            
     53600   349.74154      1            
     53650   316.10011      1            
     53700   238.79649      1            
     53750   325.71386      1            
     53800   221.28336      1            
     53850   261.34082      1            
     53900   275.50873      1            
     53950   299.27769      1            
     54000   263.56332      1            
     54050   280.0066       1            
     54100   384.223        1            
     54150   331.7383       1            
     54200   318.81249      1            
     54250   325.76293      1            
     54300   374.56772      1            
     54350   265.91789      1            
     54400   250.25797      1            
     54450   211.31132      1            
     54500   218.08602      1            
     54550   253.06666      1            
     54600   255.69269      1            
     54650   293.7767       1            
     54700   351.57687      1            
     54750   303.23854      1            
     54800   322.00475      1            
     54850   399.10672      1            
     54900   333.17059      1            
     54950   232.86342      1            
     55000   226.15411      1            
     55050   312.10244      1            
     55100   224.59485      1            
     55150   261.25012      1            
     55200   253.1954       1            
     55250   247.61006      1            
     55300   278.46309      1            
     55350   278.08797      1            
     55400   351.98701      1            
     55450   272.35748      1            
     55500   298.94758      1            
     55550   270.188        1            
     55600   349.25318      1            
     55650   327.27719      1            
     55700   276.62223      1            
     55750   281.28231      1            
     55800   266.24551      1            
     55850   250.01317      1            
     55900   196.75528      1            
     55950   264.5236       1            
     56000   277.67704      1            
     56050   268.81443      1            
     56100   326.66583      1            
     56150   277.4146       1            
     56200   299.6893       1            
     56250   305.05605      1            
     56300   205.49677      1            
     56350   311.07693      1            
     56400   306.52474      1            
     56450   184.4206       1            
     56500   257.94538      1            
     56550   315.53576      1            
     56600   275.83427      1            
     56650   260.30372      1            
     56700   309.15993      1            
     56750   330.4944       1            
     56800   362.30889      1            
     56850   283.45889      1            
     56900   359.13694      1            
     56950   274.37515      1            
     57000   315.80227      1            
     57050   232.19608      1            
     57100   197.37714      1            
     57150   177.87172      1            
     57200   159.96396      1            
     57250   177.89636      1            
     57300   194.53426      1            
     57350   196.53691      1            
     57400   311.32906      1            
     57450   293.52983      1            
     57500   241.59731      1            
     57550   241.22404      1            
     57600   304.70417      1            
     57650   450.1054       1            
     57700   323.44279      1            
     57750   307.78891      1            
     57800   279.07583      1            
     57850   344.92812      1            
     57900   252.08662      1            
     57950   220.73172      1            
     58000   273.54929      1            
     58050   294.5334       1            
     58100   312.10172      1            
     58150   305.04894      1            
     58200   328.17277      1            
     58250   369.4312       1            
     58300   349.8593       1            
     58350   313.61803      1            
     58400   328.90254      1            
     58450   300.07944      1            
     58500   290.904        1            
     58550   283.54276      1            
     58600   258.81387      1            
     58650   212.68691      1            
     58700   234.2028       1            
     58750   326.80856      1            
     58800   301.6666       1            
     58850   285.59924      1            
     58900   332.09428      1            
     58950   386.2028       1            
     59000   269.18708      1            
     59050   300.80261      1            
     59100   330.62734      1            
     59150   253.74494      1            
     59200   234.99502      1            
     59250   192.51976      1            
     59300   245.82868      1            
     59350   213.48603      1            
     59400   307.88243      1            
     59450   268.73863      1            
     59500   267.90163      1            
     59550   357.7485       1            
     59600   274.58089      1            
     59650   290.58293      1            
     59700   305.57394      1            
     59750   316.20009      1            
     59800   288.8229       1            
     59850   272.4528       1            
     59900   251.59844      1            
     59950   174.64105      1            
     60000   276.63278      1            
     60050   298.46693      1            
     60100   310.33862      1            
     60150   438.47945      1            
     60200   339.97516      1            
     60250   341.16942      1            
     60300   260.44409      1            
     60350   336.13441      1            
     60400   306.55115      1            
     60450   265.21076      1            
     60500   280.42328      1            
     60550   277.04451      1            
     60600   259.38086      1            
     60650   246.33379      1            
     60700   295.67834      1            
     60750   297.94833      1            
     60800   312.87409      1            
     60850   327.08326      1            
     60900   235.03939      1            
     60950   361.70369      1            
     61000   326.15059      1            
     61050   313.96919      1            
     61100   284.66928      1            
     61150   230.08529      1            
     61200   295.61643      1            
     61250   249.8424       1            
     61300   298.12425      1            
     61350   294.6854       1            
     61400   360.99469      1            
     61450   300.04382      1            
     61500   267.51813      1            
     61550   385.62623      1            
     61600   332.27776      1            
     61650   312.05274      1            
     61700   288.81799      1            
     61750   313.70389      1            
     61800   299.32463      1            
     61850   270.18768      1            
     61900   462.64099      1            
     61950   298.15438      1            
     62000   318.64917      1            
     62050   319.45817      1            
     62100   245.52015      1            
     62150   225.67148      1            
     62200   262.32762      1            
     62250   302.15568      1            
     62300   268.85477      1            
     62350   273.57097      1            
     62400   330.25389      1            
     62450   255.37932      1            
     62500   426.67132      1            
     62550   316.91144      1            
     62600   310.25826      1            
     62650   327.37795      1            
     62700   261.14418      1            
     62750   257.73451      1            
     62800   237.05466      1            
     62850   185.35859      1            
     62900   282.33436      1            
     62950   275.31649      1            
     63000   301.60558      1            
     63050   352.79368      1            
     63100   336.40049      1            
     63150   346.66969      1            
     63200   310.48952      1            
     63250   351.90478      1            
     63300   307.98939      1            
     63350   286.5187       1            
     63400   309.72005      1            
     63450   222.69683      1            
     63500   232.86111      1            
     63550   224.95278      1            
     63600   342.66606      1            
     63650   304.22729      1            
     63700   295.70977      1            
     63750   295.10647      1            
     63800   322.98928      1            
     63850   353.32721      1            
     63900   225.54708      1            
     63950   280.75847      1            
     64000   280.82798      1            
     64050   249.72385      1            
     64100   226.78641      1            
     64150   232.73853      1            
     64200   276.52406      1            
     64250   268.90871      1            
     64300   262.86239      1            
     64350   345.19732      1            
     64400   355.55512      1            
     64450   315.97171      1            
     64500   295.72285      1            
     64550   269.44035      1            
     64600   302.04512      1            
     64650   222.19603      1            
     64700   208.47277      1            
     64750   222.07274      1            
     64800   229.50394      1            
     64850   251.93309      1            
     64900   275.39632      1            
     64950   322.88332      1            
     65000   311.2611       1            
     65050   341.42707      1            
     65100   343.94496      1            
     65150   378.80632      1            
     65200   302.85805      1            
     65250   318.95375      1            
     65300   281.84706      1            
     65350   193.87062      1            
     65400   282.61523      1            
     65450   269.03984      1            
     65500   340.69531      1            
     65550   321.98604      1            
     65600   396.50287      1            
     65650   312.91156      1            
     65700   352.56757      1            
     65750   304.38734      1            
     65800   200.47658      1            
     65850   301.45414      1            
     65900   216.49376      1            
     65950   267.58234      1            
     66000   324.70503      1            
     66050   402.07643      1            
     66100   411.64272      1            
     66150   283.04865      1            
     66200   376.85784      1            
     66250   286.86307      1            
     66300   283.88753      1            
     66350   286.74118      1            
     66400   285.6437       1            
     66450   302.713        1            
     66500   248.74187      1            
     66550   302.55372      1            
     66600   308.51611      1            
     66650   397.34942      1            
     66700   472.41935      1            
     66750   439.47698      1            
     66800   450.36021      1            
     66850   358.72802      1            
     66900   329.93754      1            
     66950   266.98544      1            
     67000   284.88996      1            
     67050   211.54232      1            
     67100   277.91498      1            
     67150   287.58024      1            
     67200   313.25586      1            
     67250   282.72416      1            
     67300   387.41149      1            
     67350   298.82622      1            
     67400   374.6355       1            
     67450   366.42843      1            
     67500   311.58694      1            
     67550   195.18252      1            
     67600   357.62725      1            
     67650   321.23476      1            
     67700   234.65259      1            
     67750   291.48842      1            
     67800   275.61855      1            
     67850   404.7765       1            
     67900   335.8086       1            
     67950   271.20172      1            
     68000   333.94513      1            
     68050   465.24798      1            
     68100   385.26101      1            
     68150   287.27502      1            
     68200   353.66101      1            
     68250   289.05068      1            
     68300   280.17793      1            
     68350   308.75225      1            
     68400   322.15083      1            
     68450   325.39544      1            
     68500   308.80262      1            
     68550   376.30633      1            
     68600   381.91242      1            
     68650   397.7989       1            
     68700   335.64338      1            
     68750   320.91929      1            
     68800   290.12899      1            
     68850   295.43228      1            
     68900   266.69148      1            
     68950   299.7638       1            
     69000   318.20977      1            
     69050   302.612        1            
     69100   291.6099       1            
     69150   254.68502      1            
     69200   334.75711      1            
     69250   416.79055      1            
     69300   348.88806      1            
     69350   321.66367      1            
     69400   379.9028       1            
     69450   284.58965      1            
     69500   316.43321      1            
     69550   242.90386      1            
     69600   247.70973      1            
     69650   309.50225      1            
     69700   273.68976      1            
     69750   301.40444      1            
     69800   339.71405      1            
     69850   424.11859      1            
     69900   354.74103      1            
     69950   333.90911      1            
     70000   233.89319      1            
     70050   237.52557      1            
     70100   276.70398      1            
[...]
    126700   193.30176      1            
    126750   302.6384       1            
    126800   344.31926      1            
    126850   276.87197      1            
    126900   281.20545      1            
    126950   236.23317      1            
    127000   307.78938      1            
    127050   298.89946      1            
    127100   391.42051      1            
    127150   292.82582      1            
    127200   338.57053      1            
    127250   303.95602      1            
    127300   252.1965       1            
    127350   302.91027      1            
    127400   296.78322      1            
    127450   183.60066      1            
    127500   303.51964      1            
    127550   284.88172      1            
    127600   314.0628       1            
    127650   276.36644      1            
    127700   401.01195      1            
    127750   333.99939      1            
    127800   314.77192      1            
    127850   254.27258      1            
    127900   338.30726      1            
    127950   293.37955      1            
    128000   223.04985      1            
    128050   231.50022      1            
    128100   261.97182      1            
    128150   363.11492      1            
    128200   299.33559      1            
    128250   318.81712      1            
    128300   378.06376      1            
    128350   325.54245      1            
    128400   339.28236      1            
    128450   230.764        1            
    128500   308.56436      1            
    128550   267.46619      1            
    128600   311.84539      1            
    128650   279.90846      1            
    128700   282.07982      1            
    128750   229.70453      1            
    128800   389.6389       1            
    128850   358.33913      1            
    128900   410.71849      1            
    128950   352.72227      1            
    129000   291.13172      1            
    129050   292.12812      1            
    129100   332.71157      1            
    129150   254.25589      1            
    129200   295.20975      1            
    129250   312.12043      1            
    129300   301.63161      1            
    129350   405.62129      1            
    129400   453.24698      1            
    129450   458.3245       1            
    129500   337.91404      1            
    129550   356.12151      1            
    129600   281.30569      1            
    129650   311.95525      1            
    129700   275.95432      1            
    129750   236.25499      1            
    129800   242.5299       1            
    129850   323.64709      1            
    129900   275.12992      1            
    129950   321.95426      1            
    130000   340.39998      1            
    130050   365.63979      1            
    130100   275.33268      1            
    130150   335.84727      1            
    130200   316.06123      1            
    130250   223.52643      1            
    130300   189.40549      1            
    130350   301.44375      1            
    130400   309.25113      1            
    130450   277.29197      1            
    130500   310.3747       1            
    130550   334.60645      1            
    130600   343.68466      1            
    130650   395.92149      1            
    130700   408.45527      1            
    130750   354.37494      1            
    130800   293.04209      1            
    130850   281.60388      1            
    130900   294.58129      1            
    130950   320.37832      1            
    131000   247.93769      1            
    131050   345.08824      1            
    131100   307.21193      1            
    131150   290.52181      1            
    131200   255.1816       1            
    131250   250.35072      1            
    131300   275.4904       1            
    131350   268.39312      1            
    131400   384.21813      1            
    131450   327.95341      1            
    131500   291.79146      1            
    131550   220.75768      1            
    131600   375.57086      1            
    131650   344.25738      1            
    131700   278.0273       1            
    131750   276.77761      1            
    131800   241.05427      1            
    131850   221.61827      1            
    131900   204.46472      1            
    131950   263.46015      1            
    132000   288.67312      1            
    132050   383.77691      1            
    132100   352.40426      1            
    132150   266.58678      1            
    132200   280.49732      1            
    132250   321.99823      1            
    132300   259.3916       1            
    132350   330.13766      1            
    132400   264.83816      1            
    132450   213.49143      1            
    132500   261.02714      1            
    132550   263.61746      1            
    132600   217.83698      1            
    132650   203.84239      1            
    132700   240.48826      1            
    132750   263.54895      1            
    132800   280.63082      1            
    132850   282.73338      1            
    132900   314.1765       1            
    132950   321.12653      1            
    133000   259.00701      1            
    133050   316.27251      1            
    133100   304.26321      1            
    133150   194.38567      1            
    133200   234.72394      1            
    133250   216.31445      1            
    133300   248.32899      1            
    133350   242.65439      1            
    133400   279.23377      1            
    133450   277.55699      1            
    133500   438.03519      1            
    133550   252.92724      1            
    133600   345.8051       1            
    133650   239.19879      1            
    133700   217.26389      1            
    133750   306.97132      1            
    133800   231.7856       1            
    133850   218.5003       1            
    133900   237.15559      1            
    133950   298.14337      1            
    134000   387.09374      1            
    134050   372.58107      1            
    134100   228.19421      1            
    134150   332.81472      1            
    134200   345.42401      1            
    134250   279.28386      1            
    134300   261.8273       1            
    134350   271.76318      1            
    134400   268.97426      1            
    134450   301.95717      1            
    134500   367.29271      1            
    134550   329.71712      1            
    134600   389.37126      1            
    134650   413.79056      1            
    134700   350.54387      1            
    134750   308.73201      1            
    134800   343.73932      1            
    134850   363.50279      1            
    134900   258.05158      1            
    134950   287.75017      1            
    135000   363.28705      1            
    135050   311.60735      1            
    135100   408.93066      1            
    135150   342.13148      1            
    135200   335.94349      1            
    135250   373.2538       1            
    135300   330.80776      1            
    135350   335.13987      1            
    135400   269.3471       1            
    135450   331.24664      1            
    135500   233.25772      1            
    135550   304.07577      1            
    135600   264.8642       1            
    135650   260.98157      1            
    135700   343.91525      1            
    135750   362.5423       1            
    135800   323.41594      1            
    135850   313.29528      1            
    135900   336.85086      1            
    135950   320.9544       1            
    136000   234.18598      1            
    136050   304.61659      1            
    136100   272.9544       1            
    136150   296.45423      1            
    136200   362.72665      1            
    136250   317.72163      1            
    136300   283.33816      1            
    136350   272.51155      1            
    136400   293.5989       1            
    136450   327.39835      1            
    136500   279.76116      1            
    136550   283.89389      1            
    136600   272.83193      1            
    136650   294.77616      1            
    136700   282.44369      1            
    136750   287.36807      1            
    136800   411.7935       1            
    136850   378.56404      1            
    136900   339.09575      1            
    136950   325.29888      1            
    137000   327.03117      1            
    137050   325.62977      1            
    137100   318.47977      1            
    137150   251.80026      1            
    137200   230.96899      1            
    137250   265.1163       1            
    137300   279.01233      1            
    137350   357.64402      1            
    137400   376.4324       1            
    137450   315.08297      1            
    137500   305.049        1            
    137550   341.2199       1            
    137600   352.50982      1            
    137650   305.12239      1            
    137700   236.63188      1            
    137750   203.04758      1            
    137800   249.88438      1            
    137850   271.30948      1            
    137900   233.45139      1            
    137950   226.98867      1            
    138000   292.16093      1            
    138050   281.362        1            
    138100   333.55855      1            
    138150   311.33679      1            
    138200   328.71199      1            
    138250   309.93259      1            
    138300   341.40513      1            
    138350   177.65737      1            
    138400   216.29934      1            
    138450   265.77159      1            
    138500   244.29503      1            
    138550   222.55336      1            
    138600   194.45875      1            
    138650   279.65999      1            
    138700   224.50119      1            
    138750   360.70072      1            
    138800   312.46774      1            
    138850   357.82739      1            
    138900   352.69963      1            
    138950   293.78216      1            
    139000   310.65665      1            
    139050   269.56216      1            
    139100   230.79476      1            
    139150   252.2227       1            
    139200   234.98478      1            
    139250   240.22788      1            
    139300   331.70131      1            
    139350   284.72842      1            
    139400   315.44635      1            
    139450   337.91588      1            
    139500   271.03984      1            
    139550   279.05659      1            
    139600   246.51238      1            
    139650   316.58003      1            
    139700   317.50818      1            
    139750   250.61496      1            
    139800   260.29827      1            
    139850   311.45209      1            
    139900   298.54297      1            
    139950   284.18379      1            
    140000   280.26918      1            
    140050   335.15775      1            
    140100   358.29041      1            
    140150   341.90712      1            
    140200   328.79265      1            
    140250   278.90965      1            
    140300   300.95756      1            
    140350   275.42513      1            
    140400   282.50444      1            
    140450   307.42994      1            
    140500   279.01795      1            
    140550   295.24301      1            
    140600   347.67218      1            
    140650   301.73974      1            
    140700   343.68804      1            
    140750   414.43781      1            
    140800   413.57278      1            
    140850   346.0784       1            
    140900   320.52405      1            
    140950   258.03833      1            
    141000   237.47339      1            
    141050   289.28227      1            
    141100   240.88882      1            
    141150   283.91454      1            
    141200   311.80771      1            
    141250   319.14693      1            
    141300   322.7271       1            
    141350   347.45601      1            
    141400   363.25314      1            
    141450   263.73404      1            
    141500   237.23722      1            
    141550   224.61639      1            
    141600   199.26178      1            
    141650   305.98658      1            
    141700   301.26264      1            
    141750   365.0329       1            
    141800   320.69967      1            
    141850   342.89024      1            
    141900   356.2855       1            
    141950   305.03027      1            
    142000   319.89592      1            
    142050   264.8929       1            
    142100   255.2357       1            
    142150   233.63208      1            
    142200   174.47041      1            
    142250   216.75541      1            
    142300   210.51588      1            
    142350   315.24837      1            
    142400   230.59729      1            
    142450   295.80426      1            
    142500   307.33422      1            
    142550   412.24146      1            
    142600   235.90455      1            
    142650   233.40412      1            
    142700   290.93014      1            
    142750   383.8903       1            
    142800   236.32501      1            
    142850   248.9071       1            
    142900   235.24268      1            
    142950   158.22777      1            
    143000   250.60633      1            
    143050   308.16155      1            
    143100   224.9737       1            
    143150   282.7759       1            
    143200   381.13321      1            
    143250   346.25164      1            
    143300   274.72488      1            
    143350   303.60145      1            
    143400   247.93123      1            
    143450   287.37097      1            
    143500   257.10848      1            
    143550   280.47678      1            
    143600   287.48923      1            
    143650   217.23675      1            
    143700   275.26659      1            
    143750   259.87003      1            
    143800   299.80197      1            
    143850   240.2459       1            
    143900   363.2138       1            
    143950   268.35326      1            
    144000   364.49005      1            
    144050   369.88709      1            
    144100   270.28696      1            
    144150   217.36436      1            
    144200   299.46441      1            
    144250   219.38805      1            
    144300   278.86435      1            
    144350   273.98339      1            
    144400   342.10757      1            
    144450   305.9031       1            
    144500   361.91824      1            
    144550   239.24992      1            
    144600   369.32572      1            
    144650   262.12249      1            
    144700   229.37686      1            
    144750   208.4298       1            
    144800   219.3773       1            
    144850   258.65609      1            
    144900   263.15422      1            
    144950   298.42665      1            
    145000   247.33971      1            
    145050   333.82298      1            
    145100   388.2771       1            
    145150   293.6647       1            
    145200   293.64952      1            
    145250   324.36146      1            
    145300   345.04209      1            
    145350   269.91184      1            
    145400   336.78237      1            
    145450   308.40235      1            
    145500   191.56662      1            
    145550   318.69415      1            
    145600   257.65875      1            
    145650   285.89966      1            
    145700   266.95298      1            
    145750   253.03178      1            
    145800   328.77982      1            
    145850   433.24496      1            
    145900   308.38735      1            
    145950   301.47539      1            
    146000   331.30967      1            
    146050   280.16247      1            
    146100   304.00704      1            
    146150   259.94694      1            
    146200   217.82148      1            
    146250   261.48302      1            
    146300   307.70166      1            
    146350   304.29449      1            
    146400   266.08086      1            
    146450   275.37059      1            
    146500   315.56529      1            
    146550   284.63759      1            
    146600   241.95001      1            
    146650   233.69601      1            
    146700   281.90933      1            
    146750   277.3182       1            
    146800   295.86519      1            
    146850   299.74345      1            
    146900   329.92993      1            
    146950   390.98244      1            
    147000   303.48844      1            
    147050   328.28564      1            
    147100   357.13247      1            
    147150   348.77574      1            
    147200   261.02699      1            
    147250   173.83276      1            
    147300   265.38441      1            
    147350   242.67115      1            
    147400   159.1939       1            
    147450   217.30989      1            
    147500   275.5241       1            
    147550   299.99564      1            
    147600   256.90465      1            
    147650   311.53567      1            
    147700   287.19504      1            
    147750   359.37293      1            
    147800   305.21696      1            
    147850   328.41269      1            
    147900   265.4828       1            
    147950   211.67956      1            
    148000   251.78515      1            
    148050   250.03935      1            
    148100   265.52899      1            
    148150   311.9587       1            
    148200   422.55903      1            
    148250   342.95003      1            
    148300   295.13416      1            
    148350   303.51307      1            
    148400   337.74092      1            
    148450   255.60728      1            
    148500   302.04305      1            
    148550   335.14618      1            
    148600   204.592        1            
    148650   279.69875      1            
    148700   262.84316      1            
    148750   247.57916      1            
    148800   346.19776      1            
    148850   352.94693      1            
    148900   319.05714      1            
    148950   258.74153      1            
    149000   339.69551      1            
    149050   330.36459      1            
    149100   307.94866      1            
    149150   297.81078      1            
    149200   273.40451      1            
    149250   326.4226       1            
    149300   192.65117      1            
    149350   335.54513      1            
    149400   240.32012      1            
    149450   359.21066      1            
    149500   413.43443      1            
    149550   323.86863      1            
    149600   306.03797      1            
    149650   276.16544      1            
    149700   303.24877      1            
    149750   289.09244      1            
    149800   221.3835       1            
    149850   339.84984      1            
    149900   308.16927      1            
    149950   258.78564      1            
    150000   336.30352      1            
    150050   304.27232      1            
    150100   278.0272       1            
    150150   182.19384      1            
    150200   298.11484      1            
    150250   312.13809      1            
    150300   217.22689      1            
    150350   378.97188      1            
    150400   479.28492      1            
    150450   378.8205       1 