LAMMPS (22 Dec 2022)
Reading data file ...
  orthogonal box = (3.4438718 3.4438718 3.4438718) to (42.608707 42.608707 42.608707)
  2 by 3 by 4 MPI processor grid
  reading atoms ...
  4984 atoms
  reading velocities ...
  4984 velocities
  scanning bonds ...
  4 = max bonds/atom
  scanning angles ...
  6 = max angles/atom
  scanning dihedrals ...
  15 = max dihedrals/atom
  scanning impropers ...
  4 = max impropers/atom
  reading bonds ...
  4977 bonds
  reading angles ...
  9656 angles
  reading dihedrals ...
  13185 dihedrals
  reading impropers ...
  6248 impropers
Finding 1-2 1-3 1-4 neighbors ...
  special bond factors lj:    0        0        1       
  special bond factors coul:  0        0        1       
     4 = max # of 1-2 neighbors
     9 = max # of 1-3 neighbors
    13 = max # of special neighbors
  special bonds CPU = 0.002 seconds
  read_data CPU = 0.366 seconds
PPPM initialization ...
  using 12-bit tables for long-range coulomb (../kspace.cpp:342)
  G vector (1/distance) = 0.091381267
  grid = 3 3 3
  stencil order = 5
  estimated absolute RMS force accuracy = 0.35030109
  estimated relative force accuracy = 0.0010549213
  using double precision KISS FFT
  3d grid and FFT values/proc = 252 3
Generated 28 of 28 mixed pair_coeff terms from sixthpower/sixthpower mixing rule
Neighbor list info ...
  update: every = 1 steps, delay = 0 steps, check = yes
  max neighbors/atom: 2000, page size: 100000
  master list distance cutoff = 12
  ghost atom cutoff = 12
  binsize = 6, bins = 7 7 7
  1 neighbor lists, perpetual/occasional/extra = 1 0 0
  (1) pair lj/class2/coul/long, perpetual
      attributes: half, newton on
      pair build: half/bin/newton
      stencil: half/bin/3d
      bin: standard
Setting up cg style minimization ...
  Unit style    : real
  Current step  : 0
WARNING: Inconsistent image flags (../domain.cpp:815)
  PPPM/cg optimization cutoff: 1e-05
  Total charged atoms: 100.0%
  Min/max charged atoms/proc: 100.0% 100.0%
Per MPI rank memory allocation (min/avg/max) = 16.6 | 16.6 | 16.61 Mbytes
   Step          Temp          E_pair         E_mol          TotEng         Press     
         0   589.24198      1093.5128      4520.1561      14365.902     -668.06727    
       107   589.24198      430.33971     -3640.0796      5542.4931      4437.2697    
Loop time of 1.02162 on 24 procs for 107 steps with 4984 atoms

99.5% CPU use with 24 MPI tasks x no OpenMP threads

Minimization stats:
  Stopping criterion = linesearch alpha is zero
  Energy initial, next-to-last, final = 
      5613.66885392585  -3209.73984557102  -3209.73984557102
  Force two-norm initial, final = 3239.4202 49.598452
  Force max component initial, final = 141.89128 2.5429236
  Final line search alpha, max atom move = 3.7839841e-12 9.6223826e-12
  Iterations, force evaluations = 107 272

MPI task timing breakdown:
Section |  min time  |  avg time  |  max time  |%varavg| %total
---------------------------------------------------------------
Pair    | 0.5548     | 0.62228    | 0.75934    |   6.4 | 60.91
Bond    | 0.13482    | 0.1574     | 0.18187    |   3.2 | 15.41
Kspace  | 0.054114   | 0.19846    | 0.27252    |  12.7 | 19.43
Neigh   | 0.010533   | 0.010557   | 0.010582   |   0.0 |  1.03
Comm    | 0.026744   | 0.027066   | 0.027375   |   0.1 |  2.65
Output  | 0          | 0          | 0          |   0.0 |  0.00
Modify  | 0          | 0          | 0          |   0.0 |  0.00
Other   |            | 0.005853   |            |       |  0.57

Nlocal:        207.667 ave         232 max         179 min
Histogram: 1 0 4 1 6 1 5 1 3 2
Nghost:        4314.92 ave        4395 max        4256 min
Histogram: 2 2 4 5 4 1 3 1 0 2
Neighs:        62366.3 ave       75039 max       56600 min
Histogram: 7 3 3 4 1 3 1 0 1 1

Total # of neighbors = 1496792
Ave neighs/atom = 300.31942
Ave special neighs/atom = 5.8719904
Neighbor list builds = 4
Dangerous builds = 0
PPPM initialization ...
  using 12-bit tables for long-range coulomb (../kspace.cpp:342)
  G vector (1/distance) = 0.091381267
  grid = 3 3 3
  stencil order = 5
  estimated absolute RMS force accuracy = 0.35030109
  estimated relative force accuracy = 0.0010549213
  using double precision KISS FFT
  3d grid and FFT values/proc = 252 3
Generated 28 of 28 mixed pair_coeff terms from sixthpower/sixthpower mixing rule
Setting up Verlet run ...
  Unit style    : real
  Current step  : 107
  Time step     : 0.25
WARNING: Inconsistent image flags (../domain.cpp:815)
Per MPI rank memory allocation (min/avg/max) = 15.47 | 15.48 | 15.48 Mbytes
   Step          Temp          PotEng         E_vdwl         E_coul         E_bond        E_angle        E_dihed        E_impro        Density         Volume    
       107   589.24198     -3209.7398     -758.27937      1993.4372      137.43677      1162.2529     -4942.7987      3.0294702      0.73161981     60074.328    
     20000   613.18823      5710.2088      6.0327511      1988.5744      3486.581       5305.7034     -4263.0987     -8.820087       0.7155875      61420.258    
     40000   604.05894      5616.9113     -7.3398668      2014.1117      3443.2667      5377.1897     -4399.7221     -6.469208       0.69749147     63013.772    
     60000   604.04095      5631.989      -85.517789      2037.0178      3400.6951      5443.1475     -4352.0509     -6.9108521      0.70884988     62004.058    
     80000   608.31609      5860.7663      41.878414      2013.4349      3506.1046      5472.7799     -4364.4622     -4.2631552      0.711421       61779.971    
    100000   585.89124      5711.9065     -19.181976      2005.5895      3446.8116      5457.0342     -4366.022      -8.0840564      0.71161437     61763.184    
    120000   597.40253      5828.8827      0.10108573     2038.969       3521.621       5441.9776     -4359.2616     -10.418018      0.71170388     61755.416    
    140000   596.80762      5683.2911     -5.2958931      2039.3737      3386.8285      5427.7318     -4349.6363     -11.148164      0.71432061     61529.19     
    160000   606.82389      5713.4961     -3.4549728      2030.7298      3308.5225      5532.8226     -4343.0352     -7.8723338      0.69846996     62925.496    
    180000   594.37346      5748.842      -0.97981263     2024.8111      3558.0355      5301.0458     -4323.7259     -5.8785312      0.70175411     62631.011    
    200000   599.88506      5878.7788     -37.502347      2022.0129      3627.8265      5419.0124     -4339.0954     -8.8416693      0.71257772     61679.684    
    220000   599.90855      5646.5147      8.2905572      1998.0323      3444.4893      5424.86       -4416.1342     -8.4808703      0.71377812     61575.954    
    240000   620.42987      5729.9003      10.675111      2032.4677      3424.2778      5380.473      -4303.1575     -9.9707625      0.72287997     60800.646    
    260000   596.9244       5569.085      -84.971328      2005.9529      3422.8484      5380.4142     -4344.93       -5.5211945      0.72442424     60671.035    
    280000   604.69277      5740.3823     -114.39485      1999.3332      3455.1547      5524.3446     -4311.1325     -8.1505121      0.73263947     59990.72     
    300000   598.42545      5606.8966      5.6676738      1983.7956      3424.5526      5508.4602     -4499.6345     -11.511053      0.71968192     61070.826    
    320000   596.32931      5687.6093     -36.404272      2003.8991      3530.9697      5314.927      -4313.6832     -7.5141481      0.71786115     61225.724    
    340000   601.41119      5483.3963     -93.558656      2000.3877      3362.3637      5386.4077     -4360.2545     -7.3282004      0.7288587      60301.906    
    360000   593.06265      5599.6067     -8.8862177      1998.7459      3435.2697      5293.9989     -4312.9209     -2.8373663      0.71332772     61614.833    
    380000   600.75225      5604.8345      25.171628      1985.3081      3358.0717      5358.8041     -4311.363      -6.6010858      0.71315393     61629.849    
    400000   604.32447      5560.8722     -94.765923      2004.6836      3409.7971      5367.7071     -4310.3219     -11.48963       0.74241599     59200.73     
    420000   588.29198      5663.5225     -20.314427      1999.5882      3368.5583      5430.8064     -4301.4239     -9.3189803      0.72758978     60407.073    
    440000   599.03231      5583.2208     -164.53641      2041.6627      3502.3231      5383.4044     -4368.1068     -7.3258008      0.75195164     58449.994    
    460000   606.677        5829.7221     -37.1501        2003.3591      3480.8502      5563.0501     -4367.5979     -8.3108145      0.7194256      61092.584    
    480000   595.9412       5597.6904      8.071912       1995.1842      3332.4342      5406.1984     -4334.1531     -6.210319       0.72143944     60922.049    
    500000   595.44481      5808.9004     -31.053374      2015.0258      3587.5897      5426.7719     -4375.1183     -10.306653      0.72219019     60858.718    
    520000   602.3813       5822.4143     -11.425567      2043.1838      3514.3121      5523.6305     -4435.3973     -7.5548059      0.70805831     62073.375    
    540000   611.42694      5531.5179     -24.992816      1997.0912      3359.024       5407.5437     -4397.1908     -5.5156212      0.70618938     62237.652    
    560000   600.57403      5476.6515      4.7449078      2000.6921      3310.8102      5330.6314     -4355.4116     -10.085578      0.72189093     60883.946    
    580000   603.48166      5658.225      -18.367267      2032.2166      3370.6201      5428.2879     -4338.7552     -11.359733      0.72514709     60610.557    
    600000   604.17571      5639.1131     -134.59731      2035.2862      3498.9305      5336.8012     -4283.6132     -9.1378809      0.74133467     59287.081    
    620000   600.3667       5710.6762     -34.558772      2014.8718      3545.9156      5312.3216     -4317.8381     -5.6396719      0.71096928     61819.223    
    640000   600.07061      5589.3843     -79.775203      1993.1038      3472.6167      5363.7248     -4350.3083     -5.0959386      0.70797778     62080.436    
    660000   596.95387      5632.6826     -24.055696      2047.1207      3445.427       5281.7137     -4308.2863     -4.7661354      0.71770999     61238.62     
    680000   589.7001       5782.5954     -73.828107      2020.3815      3577.238       5406.683      -4335.6248     -7.8799512      0.7371468      59623.903    
    700000   602.3333       5522.4839     -49.377055      1996.3066      3358.4894      5305.1034     -4274.2157     -9.3552511      0.72336841     60759.591    
    720000   587.17817      5617.8904      30.225978      2004.6018      3398.7122      5289.2742     -4291.2647     -8.922852       0.70219818     62591.403    
    740000   595.29745      5730.3091     -40.774512      2033.8869      3522.4597      5414.8944     -4386.1729     -9.2904624      0.71781243     61229.88     
    760000   597.93076      5617.2299     -81.638507      2036.5344      3559.1286      5253.783      -4336.279      -9.6465206      0.71987082     61054.8      
    780000   607.5478       5653.7171      14.932478      2007.6704      3342.2407      5400.2143     -4299.6496     -6.6499601      0.70635167     62223.352    
    800000   595.96089      5707.844      -1.7565152      2022.1904      3450.9578      5347.1313     -4296.1771     -9.9076576      0.71535534     61440.191    
    820000   593.56238      5537.6898     -141.46759      1993.8329      3282.0102      5536.155      -4324.7009     -3.3999402      0.73674163     59656.692    
    840000   605.18917      5798.1696      18.882584      2034.7553      3378.2305      5455.3655     -4275.3642     -9.1543201      0.71638406     61351.964    
    860000   599.69741      5548.7701     -29.244473      2046.2427      3420.0187      5223.3827     -4299.8945     -7.1216966      0.7371641      59622.503    
    880000   594.09894      5648.8704      18.197105      1997.0817      3395.8102      5385.7594     -4335.9997     -7.3022113      0.71670268     61324.689    
    900000   595.0049       5750.4427      1.0865583      2026.935       3469.3146      5396.8184     -4330.3329     -8.8836636      0.70373943     62454.322    
    920000   599.16761      5801.1352      22.885596      2016.1564      3459.8727      5387.4775     -4271.3686     -9.5646901      0.70525247     62320.333    
    940000   589.521        5626.572      -58.46007       2026.8291      3463.3672      5410.909      -4404.0126     -7.5108991      0.71724503     61278.318    
    960000   609.05465      5685.7197     -41.003201      2021.7246      3537.8132      5317.5515     -4335.4862     -10.283327      0.71322434     61623.764    
    980000   595.70395      5626.296      -58.04342       1999.6379      3521.2836      5378.6371     -4400.2966     -10.451947      0.72133399     60930.955    
   1000000   599.75258      5540.3098     -40.151017      2030.2086      3484.4585      5210.3995     -4336.3366     -3.8840277      0.72267077     60818.246    
   1020000   596.50251      5494.7485     -68.221189      2017.1367      3431.1441      5366.985      -4440.2022     -7.3142793      0.72379888     60723.455    
   1040000   598.84969      5601.3451     -46.028651      2003.3569      3525.5993      5268.8475     -4340.4081     -5.365735       0.70632184     62225.98     
   1060000   601.16829      5446.594      -84.0929        2030.8165      3411.5539      5263.5564     -4359.4628     -11.258588      0.71832345     61186.321    
   1080000   606.13851      5626.4996     -64.047485      1994.1538      3513.0574      5344.5025     -4349.3301     -7.5799592      0.71918129     61113.337    
   1100000   596.99455      5647.9283     -80.958006      2025.0031      3488.64        5383.4115     -4357.776      -6.0262824      0.7258167      60554.64     
   1120000   610.40565      5755.012      -45.954721      2009.6161      3354.5685      5638.0886     -4388.0175     -8.6308593      0.73095209     60129.206    
   1140000   601.77261      5561.0337     -22.237341      1991.0404      3409.0074      5375.6022     -4378.8928     -8.7977937      0.72214517     60862.512    
   1160000   598.44634      5608.0452      15.005921      2011.5214      3416.8269      5373.5126     -4394.0763     -10.405116      0.71360336     61591.034    
   1180000   612.20317      5637.3131      14.418851      1967.0418      3493.7712      5353.6593     -4376.4157     -10.503789      0.70146667     62656.674    
   1200000   601.60103      5768.821      -41.754536      2049.6705      3480.1267      5510.2733     -4417.6423     -7.3379835      0.73436234     59849.977    
   1200107   612.19584      5582.7785     -90.935381      2037.3631      3480.2049      5355.0352     -4385.2854     -8.8937979      0.73153324     60081.438    
Loop time of 3566.35 on 24 procs for 1200000 steps with 4984 atoms

Performance: 7.268 ns/day, 3.302 hours/ns, 336.478 timesteps/s, 1.677 Matom-step/s
99.5% CPU use with 24 MPI tasks x no OpenMP threads

MPI task timing breakdown:
Section |  min time  |  avg time  |  max time  |%varavg| %total
---------------------------------------------------------------
Pair    | 1663.5     | 1806.8     | 2000       | 239.9 | 50.66
Bond    | 562.9      | 621.61     | 672.62     | 106.4 | 17.43
Kspace  | 703.04     | 926.59     | 1093.5     | 370.8 | 25.98
Neigh   | 51.072     | 51.098     | 51.142     |   0.3 |  1.43
Comm    | 113.84     | 115.2      | 116.3      |   6.0 |  3.23
Output  | 0.0026278  | 0.0032833  | 0.017905   |   5.3 |  0.00
Modify  | 31.599     | 32.744     | 34.562     |  15.3 |  0.92
Other   |            | 12.31      |            |       |  0.35

Nlocal:        207.667 ave         227 max         171 min
Histogram: 1 0 1 1 2 4 2 5 7 1
Nghost:        4325.96 ave        4406 max        4228 min
Histogram: 1 1 3 3 2 5 2 1 3 3
Neighs:        62334.2 ave       71897 max       45139 min
Histogram: 1 0 1 2 1 4 3 6 4 2

Total # of neighbors = 1496021
Ave neighs/atom = 300.16473
Ave special neighs/atom = 5.8719904
Neighbor list builds = 18186
Dangerous builds = 0
PPPM initialization ...
  using 12-bit tables for long-range coulomb (../kspace.cpp:342)
  G vector (1/distance) = 0.091378391
  grid = 3 3 3
  stencil order = 5
  estimated absolute RMS force accuracy = 0.35029877
  estimated relative force accuracy = 0.0010549143
  using double precision KISS FFT
  3d grid and FFT values/proc = 252 3
Generated 28 of 28 mixed pair_coeff terms from sixthpower/sixthpower mixing rule
Setting up Verlet run ...
  Unit style    : real
  Current step  : 1200107
  Time step     : 0.25
WARNING: Inconsistent image flags (../domain.cpp:815)
Per MPI rank memory allocation (min/avg/max) = 15.47 | 15.48 | 15.48 Mbytes
   Step          Temp          PotEng         E_vdwl         E_coul         E_bond        E_angle        E_dihed        E_impro        Density         Volume    
   1200107   612.19584      5582.7789     -90.935381      2037.3382      3480.2049      5355.0352     -4385.2854     -8.8937979      0.73153324     60081.438    
   1220000   577.5783       5191.1464     -132.0603       2006.2061      3274.1265      5279.2717     -4425.9691     -6.4081035      0.72228752     60850.517    
   1240000   585.31421      5449.7626     -128.18209      2006.2823      3426.2543      5289.5998     -4333.5534     -6.1423333      0.72848398     60332.924    
   1260000   576.11224      5450.1254     -131.77253      1982.6589      3402.2222      5311.9217     -4303.2266     -7.019357       0.73931819     59448.786    
   1280000   588.64094      5530.3578     -19.632781      1998.392       3345.6447      5384.9005     -4370.3328     -4.0565117      0.7189788      61130.549    
   1300000   587.95347      5141.464      -108.87649      1997.8672      3353.6887      5096.1273     -4385.9994     -6.8435712      0.73149979     60084.185    
   1320000   587.09374      5301.7505     -5.058675       2023.2394      3337.4266      5117.5903     -4360.4955     -6.6243107      0.7201824      61028.385    
   1340000   582.425        5134.2811     -62.542461      2019.7589      3213.3133      5078.6795     -4303.8277     -6.7081398      0.72758726     60407.282    
   1360000   583.82377      5179.5534     -184.5909       1981.9871      3369.8648      5180.7497     -4358.0327     -5.589269       0.72668968     60481.895    
   1380000   580.64981      5451.5581     -38.50805       2006.0485      3370.5899      5331.5349     -4401.6926     -11.865129      0.7106956      61843.03     
   1400000   590.56811      5242.1061     -175.59734      2004.8707      3296.5735      5304.9817     -4373.7379     -10.341655      0.75382808     58304.499    
   1420000   569.82965      5304.2432     -140.87347      2027.8068      3427.7676      5207.103      -4402.8704     -10.73221       0.72846884     60334.178    
   1440000   570.55511      5364.0823     -112.06081      2027.9498      3300.9628      5351.5044     -4391.3476     -8.1946514      0.74384263     59087.187    
   1460000   578.05456      5424.2463     -221.61398      2016.1483      3397.132       5403.1286     -4356.2957     -9.6242485      0.75219346     58431.203    
   1480000   573.96923      5416.6914     -32.260133      1980.047       3256.4613      5383.8973     -4357.4702     -9.1395593      0.73294082     59966.054    
   1500000   586.17622      5460.0232     -29.199086      2032.0311      3313.6311      5334.6999     -4377.9331     -8.9798517      0.71784112     61227.432    
   1520000   569.69092      5256.6661     -170.64236      2004.8411      3424.0528      5179.58       -4366.1104     -10.352878      0.74271214     59177.124    
   1540000   572.48838      5373.9717     -84.60586       2036.6029      3363.672       5238.495      -4370.2686     -5.4011205      0.74040012     59361.915    
   1560000   577.65496      5115.1784     -92.980804      2015.9669      3220.5         5188.1945     -4400.4268     -11.648008      0.73909025     59467.121    
   1580000   579.30518      5362.7865     -80.615479      1999.6085      3359.9193      5226.9059     -4329.3374     -9.0846844      0.73996159     59397.095    
   1600000   582.54947      5400.5283     -177.41581      2017.9058      3345.6364      5418.082      -4391.8907     -7.2198         0.73555406     59753.009    
   1620000   577.79308      5373.8436     -17.611096      2034.8058      3404.5361      5097.2487     -4332.2358     -8.6084224      0.72128836     60934.809    
   1640000   576.96707      5326.5707     -75.365809      1999.2013      3319.4762      5243.0053     -4347.0108     -8.1589541      0.73991227     59401.054    
   1660000   589.2041       5303.822      -49.936179      2020.7736      3232.3386      5296.2089     -4384.9473     -5.9459471      0.73154736     60080.278    
   1680000   579.8178       5174.5854     -123.75535      1989.2503      3335.3783      5102.3873     -4316.0353     -8.1634373      0.74760605     58789.745    
   1700000   573.64211      5481.8221     -35.703641      2018.697       3362.5315      5352.2458     -4398.4204     -12.993466      0.71094509     61821.327    
   1720000   585.91269      5314.3321     -116.70876      1996.9553      3308.8262      5207.3662     -4274.9933     -2.3526297      0.73495859     59801.422    
   1740000   567.47325      5538.2282     -41.945391      2006.6449      3322.6163      5386.5247     -4323.9363     -6.9940641      0.7125245      61684.292    
   1760000   591.99073      5265.9063     -35.184459      2015.5704      3283.1545      5206.2193     -4388.2008     -10.992799      0.72967608     60234.356    
   1780000   576.72237      5381.4043     -73.337445      2007.9691      3261.692       5313.896      -4316.754      -7.6512295      0.72414309     60694.591    
   1800000   589.34001      5160.7343     -191.03132      1999.732       3296.9982      5282.6326     -4416.2265     -6.7047712      0.74642857     58882.484    
   1820000   584.02956      5188.0326     -103.47596      2008.9655      3305.9751      5161.6981     -4372.1861     -8.6330451      0.73318934     59945.728    
   1840000   579.57896      5308.7242     -87.569434      1976.5759      3306.2089      5239.8279     -4311.1228     -10.80914       0.74185766     59245.286    
   1860000   564.56822      5132.7769     -202.0221       2005.4721      3392.8879      5175.3032     -4424.8898     -9.3401502      0.74142855     59279.574    
   1880000   575.05694      5373.6279     -49.95257       2006.5401      3392.0917      5173.2014     -4337.2905     -6.8066498      0.72407598     60700.216    
   1900000   565.00908      5198.9275     -128.50841      2016.3156      3267.3554      5225.2103     -4367.8143     -9.5291446      0.7485978      58711.859    
   1920000   565.22271      5261.2274     -152.67877      1989.7607      3357.1631      5210.3842     -4330.6822     -8.1422732      0.74229399     59210.46     
   1940000   581.18171      5322.5201     -162.94331      1977.9522      3350.4845      5295.7031     -4327.8854     -6.7442732      0.73995533     59397.598    
   1960000   580.86935      5266.5381     -124.50011      2011.3121      3329.1389      5228.3806     -4367.633      -5.6196721      0.73158312     60077.342    
   1980000   584.46372      5298.1052     -111.71008      2031.9128      3310.2237      5226.2399     -4344.8164     -9.3534589      0.73209787     60035.1      
   2000000   569.09149      5202.0331     -78.289052      1995.7589      3256.7949      5281.339      -4439.9369     -9.3022038      0.73132722     60098.363    
   2020000   576.82197      5144.799      -128.59299      1994.5523      3285.2439      5152.3919     -4344.7211     -9.3289032      0.72785031     60385.451    
   2040000   575.77792      5295.4833     -113.22644      2029.854       3290.9247      5259.1274     -4358.6712     -7.7823934      0.73030687     60182.33     
   2060000   581.00277      5322.8365     -138.85093      2039.9318      3317.0544      5283.0573     -4366.8197     -7.6235363      0.72968685     60233.467    
   2080000   574.70705      5393.4857     -81.91542       2003.3138      3338.4333      5434.414      -4483.4335     -13.149894      0.71498795     61471.762    
   2100000   577.63903      4991.1339     -179.99377      2000.7472      3226.9542      5149.4632     -4397.7858     -3.8858541      0.74380191     59090.422    
   2120000   571.82465      5245.3475     -6.5172191      2007.6021      3229.0976      5193.5301     -4365.2291     -8.4889709      0.72419546     60690.202    
   2140000   582.26599      5376.1243     -34.195272      1997.373       3343.9796      5194.6829     -4308.2257     -13.096009      0.72131698     60932.392    
   2160000   589.45578      5199.5936     -194.99511      1995.5915      3337.8166      5279.7087     -4405.921      -8.2899595      0.73898683     59475.442    
   2180000   573.38734      5506.657      -100.81844      2003.9361      3433.7926      5372.4871     -4388.3689     -9.8125753      0.72793723     60378.24     
   2200000   581.22167      5143.1989     -119.07087      1988.2848      3238.6812      5205.1191     -4358.6584     -6.3632108      0.7424297      59199.637    
   2220000   579.58168      5158.9739     -131.79141      1989.6303      3305.751       5173.9742     -4365.8069     -8.1406538      0.75078355     58540.932    
   2240000   581.8013       5545.1603     -35.096885      2003.9483      3356.2372      5351.1047     -4322.325      -4.8323137      0.73028518     60184.117    
   2260000   586.42095      5295.6657     -125.22726      2003.3124      3382.7659      5218.4133     -4372.7449     -6.5732795      0.74842363     58725.523    
   2280000   575.79333      5203.0265     -54.32668       1969.6317      3327.1095      5177.459      -4406.7588     -5.2015009      0.72646065     60500.963    
   2300000   580.2211       5337.6956     -126.07331      2038.8888      3329.8014      5191.2028     -4283.5943     -8.03615        0.74710268     58829.355    
   2320000   577.21518      5395.8278     -98.94755       1997.1643      3412.4012      5286.1574     -4390.4554     -6.3880974      0.73537996     59767.156    
   2340000   576.53602      5302.7165     -147.32967      1982.1172      3274.3005      5373.7049     -4367.3118     -8.3391219      0.73538714     59766.572    
   2360000   574.68113      5133.9513     -100.50879      1979.2792      3171.8868      5243.0033     -4347.066      -8.3130045      0.71324818     61621.705    
   2380000   568.89715      5199.2532     -68.775065      2007.1156      3302.0292      5127.2602     -4357.7207     -6.5739171      0.71702176     61297.399    
   2400000   582.65076      5384.903      -85.192797      2006.6314      3396.9741      5199.6135     -4319.8899     -9.091648       0.7263455      60510.554    
   2400107   582.84704      5364.3435     -38.291275      1981.8767      3317.6199      5292.6794     -4375.4717     -9.9669384      0.72929856     60265.536    
Loop time of 3640.8 on 24 procs for 1200000 steps with 4984 atoms

Performance: 7.119 ns/day, 3.371 hours/ns, 329.598 timesteps/s, 1.643 Matom-step/s
99.5% CPU use with 24 MPI tasks x no OpenMP threads

MPI task timing breakdown:
Section |  min time  |  avg time  |  max time  |%varavg| %total
---------------------------------------------------------------
Pair    | 1604.2     | 1854.9     | 2093.9     | 333.6 | 50.95
Bond    | 570.48     | 617.26     | 672.5      | 109.1 | 16.95
Kspace  | 664.82     | 959.56     | 1257.4     | 527.0 | 26.36
Neigh   | 48.129     | 48.162     | 48.197     |   0.3 |  1.32
Comm    | 113.91     | 115.92     | 117.37     |   6.8 |  3.18
Output  | 0.010902   | 0.01139    | 0.022031   |   2.1 |  0.00
Modify  | 30.986     | 32.588     | 34.041     |  14.8 |  0.90
Other   |            | 12.42      |            |       |  0.34

Nlocal:        207.667 ave         237 max         176 min
Histogram: 2 0 2 1 4 8 1 5 0 1
Nghost:        4311.96 ave        4380 max        4241 min
Histogram: 1 1 3 3 5 0 5 4 0 2
Neighs:        61854.8 ave       71466 max       50085 min
Histogram: 1 3 1 3 3 2 1 4 3 3

Total # of neighbors = 1484515
Ave neighs/atom = 297.85614
Ave special neighs/atom = 5.8719904
Neighbor list builds = 17479
Dangerous builds = 0
PPPM initialization ...
  using 12-bit tables for long-range coulomb (../kspace.cpp:342)
  G vector (1/distance) = 0.091304079
  grid = 3 3 3
  stencil order = 5
  estimated absolute RMS force accuracy = 0.35023857
  estimated relative force accuracy = 0.001054733
  using double precision KISS FFT
  3d grid and FFT values/proc = 252 3
Generated 28 of 28 mixed pair_coeff terms from sixthpower/sixthpower mixing rule
Setting up Verlet run ...
  Unit style    : real
  Current step  : 2400107
  Time step     : 0.25
WARNING: Inconsistent image flags (../domain.cpp:815)
Per MPI rank memory allocation (min/avg/max) = 15.47 | 15.48 | 15.48 Mbytes
   Step          Temp          PotEng         E_vdwl         E_coul         E_bond        E_angle        E_dihed        E_impro        Density         Volume    
   2400107   582.84704      5364.2889     -38.291275      1981.1696      3317.6199      5292.6794     -4375.4717     -9.9669384      0.72929856     60265.536    
   2420000   556.65404      4923.8403     -156.01204      1980.8381      3184.9006      5048.0195     -4323.0155     -6.7525643      0.74161288     59264.84     
   2440000   557.11342      4984.4431     -122.79498      2007.5874      3066.5886      5188.6991     -4344.7297     -6.8823083      0.74568301     58941.357    
   2460000   560.28267      4886.8069     -208.28715      2009.0174      3236.8423      5059.0587     -4400.3635     -5.7644826      0.74444854     59039.096    
   2480000   552.06437      4973.4004     -137.12606      2006.0699      3259.9141      5094.3174     -4438.3961     -7.3884564      0.74133883     59286.749    
   2500000   550.41693      4992.9067     -82.983352      2001.8301      3212.2481      4982.8486     -4310.4996     -6.6658974      0.73597331     59718.971    
   2520000   551.53234      5017.1596     -76.249786      1993.8657      3302.1502      5049.5516     -4438.9452     -9.0649462      0.74441888     59041.449    
   2540000   553.72342      4757.6602     -168.17975      1992.9903      3171.1598      4951.9018     -4380.5857     -5.6976114      0.75284664     58380.507    
   2560000   557.42905      4949.206      -208.74138      2010.4901      3203.382       5130.2467     -4375.3472     -6.797892       0.75007915     58595.908    
   2580000   551.85258      4911.4386     -143.12553      2006.3836      3264.7485      4997.0659     -4405.2931     -4.2772334      0.75386734     58301.463    
   2600000   561.15548      4891.3356     -183.00939      2011.4262      3220.1753      5063.2892     -4410.645      -5.9282037      0.73996116     59397.13     
   2620000   564.54435      4904.7736     -147.22605      2012.6791      3233.3015      4991.8705     -4372.2563     -9.6030919      0.74158038     59267.437    
   2640000   563.50432      4963.0293     -81.097996      2015.7319      3256.982       4984.5698     -4402.6693     -6.7491859      0.7401309      59383.507    
   2660000   565.57388      4927.796      -123.41251      2001.3326      3221.0345      5126.8037     -4486.7918     -7.204538       0.73326097     59939.872    
   2680000   567.28135      5051.0943     -157.67672      2021.1259      3299.7453      5112.402      -4413.6168     -7.1784163      0.74760659     58789.702    
   2700000   559.29069      4895.3638     -170.52521      2008.6616      3217.2159      5039.3067     -4388.0768     -7.7160368      0.74275103     59174.026    
   2720000   564.60301      5008.6602     -107.59282      2029.0068      3275.4283      5114.7102     -4491.5706     -7.013342       0.73929962     59450.279    
   2740000   557.43575      4778.8073     -182.52768      2033.1911      3208.6814      5003.8524     -4468.5797     -11.914905      0.75644314     58102.938    
   2760000   559.8579       4843.1217     -209.76024      2020.649       3234.0833      4973.5318     -4361.7102     -9.7559038      0.76675365     57321.63     
   2780000   557.88093      4909.8136     -161.65564      2005.4647      3223.8043      5061.9948     -4406.9153     -8.9824294      0.73744941     59599.436    
   2800000   556.41398      5062.5429     -98.987517      1984.2309      3190.4104      5168.0349     -4371.3337     -6.0426377      0.74631882     58891.144    
   2820000   558.78953      5039.7912     -113.71602      1995.2481      3335.3711      5093.9979     -4462.8895     -4.4527876      0.74215829     59221.286    
   2840000   560.42298      4960.4111     -113.64305      2006.076       3153.9463      5112.7345     -4389.3758     -5.3444653      0.73303894     59958.028    
   2860000   558.96023      4948.9572     -161.29989      1991.6158      3186.5543      5170.9914     -4427.8655     -7.296723       0.72896801     60292.863    
   2880000   556.1741       4851.4092     -87.378674      2012.1459      3154.1021      4996.4492     -4416.2539     -3.8255845      0.74303698     59151.253    
   2900000   567.13023      4913.3143     -34.324356      2023.9309      3078.6144      5112.3517     -4455.581      -7.8696441      0.72796209     60376.178    
   2920000   566.33567      4807.2427     -182.54969      2001.9022      3199.2101      5047.1019     -4449.0663     -5.3902454      0.7543525      58263.966    
   2940000   565.0851       5037.6139     -117.78155      2017.2868      3192.4985      5117.5982     -4364.0006     -4.0950397      0.72527686     60599.712    
   2960000   567.74456      5112.3689     -60.513766      2040.8954      3283.3958      5092.9161     -4429.4409     -10.628181      0.72728611     60432.295    
   2980000   557.12625      4952.3522     -133.10526      2028.2803      3267.2369      5017.1316     -4417.4803     -5.9501938      0.73056825     60160.798    
   3000000   564.28701      4895.0769     -88.092713      1990.5498      3151.0084      5075.3994     -4423.9441     -5.8729223      0.7411557      59301.398    
   3020000   550.624        4977.5302     -153.81036      2014.2282      3245.8978      5073.2715     -4392.0614     -5.8883384      0.73925952     59453.504    
   3040000   552.77633      4813.5531     -185.90781      1983.8187      3165.2897      5081.9563     -4419.9622     -8.0886652      0.76145225     57720.716    
   3060000   553.42507      4847.5926     -172.04494      2001.4028      3168.6528      5098.4331     -4439.4872     -5.4026961      0.74593514     58921.435    
   3080000   560.8658       4894.8733     -25.131408      2022.6554      3161.2741      5030.0028     -4481.4184     -8.5651709      0.71702937     61296.748    
   3100000   554.56384      5154.1919     -48.952431      1991.0942      3254.6306      5180.5806     -4416.8966     -2.3216278      0.69241669     63475.606    
   3120000   558.72907      4979.2242      18.768697      1990.0856      3091.6915      5075.9166     -4385.1118     -8.2030559      0.71573293     61407.778    
   3140000   562.5776       5138.6643     -67.933236      2016.8949      3278.7236      5126.2875     -4404.0714     -7.1861746      0.73403118     59876.978    
   3160000   548.16727      5242.7358     -83.959888      2015.6309      3250.9754      5290.818      -4420.1877     -6.7332812      0.7140465      61552.811    
   3180000   548.40211      4885.4931     -171.62046      2013.3416      3179.5404      5134.144      -4458.9964     -6.8070885      0.74947528     58643.12     
   3200000   575.74024      4881.2108     -182.74622      1984.9128      3203.8476      5072.7784     -4384.5033     -9.1391157      0.76487318     57462.557    
   3220000   572.37265      4769.4069     -127.64702      2013.5823      3061.7458      5056.5485     -4427.0494     -3.6936067      0.75059902     58555.324    
   3240000   565.95688      4921.0475     -137.97015      1987.478       3295.8193      4952.0086     -4364.5147     -8.0817917      0.742079       59227.614    
   3260000   561.01113      4896.4319     -95.91768       2007.8778      3230.0073      4959.3011     -4393.3937     -7.7893992      0.73711436     59626.526    
   3280000   562.62746      4786.8943     -83.805244      2033.5523      3092.0209      5028.071      -4475.6949     -3.7282128      0.73690895     59643.147    
   3300000   552.46684      4842.3716     -127.57781      1997.2328      3107.8014      5027.1223     -4351.0781     -7.3444022      0.73067468     60152.035    
   3320000   565.34773      4822.5947     -228.5831       1994.9198      3162.2558      5153.5713     -4445.1916     -10.298204      0.74558904     58948.786    
   3340000   558.74267      4844.77       -156.43945      1990.4866      3219.6288      4994.2493     -4392.0141     -7.0952901      0.75535353     58186.753    
   3360000   569.14056      5041.5119     -132.28932      1992.5886      3241.5293      5113.8323     -4363.2216     -6.8072452      0.730986       60126.417    
   3380000   569.76822      4974.6225     -97.470099      1973.5631      3195.0959      5141.9376     -4422.6864     -11.901479      0.72745899     60417.934    
   3400000   564.08274      4828.7399     -166.80349      1992.8938      3108.7049      5058.0789     -4353.5943     -6.4383731      0.74784494     58770.965    
   3420000   553.13096      5010.6881     -162.49473      2001.667       3346.6666      5091.0941     -4452.0629     -10.072901      0.75098384     58525.319    
   3440000   556.92721      5006.7985     -221.13782      1976.9639      3314.0249      5029.2228     -4280.9092     -7.7047798      0.75678635     58076.587    
   3460000   564.44314      4968.0671     -189.87831      1991.5867      3262.0508      5164.0116     -4451.0766     -4.8618121      0.75396715     58293.745    
   3480000   552.64146      4933.1992     -88.760123      1996.3237      3218.5412      4944.0911     -4321.0158     -12.250687      0.73424221     59859.769    
   3500000   552.39351      5018.0325     -117.8317       2028.7098      3119.49        5166.0856     -4369.3415     -5.7419213      0.74107194     59308.1      
   3520000   563.12141      4937.6416     -189.94945      1993.9426      3200.4585      5136.071      -4393.3941     -5.5214912      0.74977466     58619.705    
   3540000   549.49023      4790.4819     -214.7181       1999.6441      3185.4419      5026.747      -4393.6863     -9.3520991      0.75043977     58567.75     
   3560000   559.00906      4895.3019     -134.87363      1969.6132      3278.6333      4989.8119     -4397.6326     -6.6087511      0.74542525     58961.739    
   3580000   557.64062      5025.5254     -176.53777      1973.6415      3305.6309      5091.1254     -4352.7983     -11.704285      0.74016504     59380.768    
   3600000   559.87846      4912.2998     -183.49409      2010.9156      3169.6042      5115.7496     -4390.4864     -6.470046       0.75365622     58317.795    
   3600107   556.64541      5058.7409     -125.55532      2005.7168      3281.0771      5114.2506     -4404.7103     -8.517424       0.75784105     57995.762    
Loop time of 3675.25 on 24 procs for 1200000 steps with 4984 atoms

Performance: 7.053 ns/day, 3.403 hours/ns, 326.508 timesteps/s, 1.627 Matom-step/s
99.5% CPU use with 24 MPI tasks x no OpenMP threads

MPI task timing breakdown:
Section |  min time  |  avg time  |  max time  |%varavg| %total
---------------------------------------------------------------
Pair    | 1608.5     | 1875.9     | 2150.8     | 337.0 | 51.04
Bond    | 563.72     | 616.9      | 669.28     | 109.3 | 16.79
Kspace  | 641.4      | 968.55     | 1289.2     | 520.3 | 26.35
Neigh   | 51.891     | 51.944     | 51.985     |   0.4 |  1.41
Comm    | 115.65     | 116.93     | 117.87     |   5.6 |  3.18
Output  | 0.003326   | 0.0038903  | 0.0162     |   4.1 |  0.00
Modify  | 31.159     | 32.667     | 34.481     |  16.1 |  0.89
Other   |            | 12.4       |            |       |  0.34

Nlocal:        207.667 ave         243 max         167 min
Histogram: 1 0 3 3 4 3 7 0 1 2
Nghost:        4413.17 ave        4463 max        4358 min
Histogram: 2 2 1 4 2 3 4 1 2 3
Neighs:        64434.4 ave       82743 max       48909 min
Histogram: 1 1 3 5 6 3 2 1 1 1

Total # of neighbors = 1546426
Ave neighs/atom = 310.27809
Ave special neighs/atom = 5.8719904
Neighbor list builds = 18600
Dangerous builds = 0
PPPM initialization ...
  using 12-bit tables for long-range coulomb (../kspace.cpp:342)
  G vector (1/distance) = 0.092239571
  grid = 3 3 3
  stencil order = 5
  estimated absolute RMS force accuracy = 0.35094762
  estimated relative force accuracy = 0.0010568683
  using double precision KISS FFT
  3d grid and FFT values/proc = 252 3
Generated 28 of 28 mixed pair_coeff terms from sixthpower/sixthpower mixing rule
Setting up Verlet run ...
  Unit style    : real
  Current step  : 3600107
  Time step     : 0.25
WARNING: Inconsistent image flags (../domain.cpp:815)
Per MPI rank memory allocation (min/avg/max) = 15.47 | 15.48 | 15.48 Mbytes
   Step          Temp          PotEng         E_vdwl         E_coul         E_bond        E_angle        E_dihed        E_impro        Density         Volume    
   3600107   556.64541      5058.5503     -125.55532      2013.7381      3281.0771      5114.2506     -4404.7103     -8.517424       0.75784105     57995.762    
   3620000   542.45306      4573.8189     -249.87031      2009.3164      3136.968       4880.6663     -4384.8404     -6.2354487      0.75665115     58086.965    
   3640000   535.01193      4784.4608     -171.82455      2005.6462      3182.7896      4953.1529     -4368.0282     -4.8107812      0.74925406     58660.434    
   3660000   534.68809      4830.5266     -214.54048      2025.2175      3137.8209      5086.7294     -4388.4963     -3.831607       0.74415373     59062.486    
   3680000   535.30131      4310.4436     -179.08558      2018.013       3004.9054      4723.8768     -4441.7655     -3.3028666      0.76457708     57484.811    
   3700000   541.00181      4556.0458     -188.03758      1991.7423      3134.2351      4967.9128     -4531.6662     -5.7161292      0.76392327     57534.009    
   3720000   531.99153      4625.3975     -162.89663      1991.9986      3076.8432      4958.3918     -4416.346      -10.17837       0.74984932     58613.868    
   3740000   542.24827      4492.6592     -232.12285      2005.9385      3045.6445      4943.1658     -4453.2601     -4.1410256      0.75956164     57864.387    
   3760000   528.64506      4570.2997     -162.79068      1995.9994      3113.6461      4929.0676     -4489.8033     -3.2756266      0.75025056     58582.521    
   3780000   534.28203      4517.3632     -168.90308      2006.0868      2981.3604      4948.0662     -4428.6982     -8.9110517      0.7571543      58048.364    
   3800000   538.79873      4609.6976     -212.67943      2013.314       3045.4607      4951.2393     -4369.8252     -6.3877426      0.75977652     57848.022    
   3820000   543.14411      4510.3646     -225.34442      2009.746       3045.5188      4955.7457     -4458.4013     -4.8228275      0.76060615     57784.924    
   3840000   544.81369      4547.2829     -221.42274      2008.6889      3083.1731      4936.5788     -4439.7897     -7.6684375      0.75614634     58125.745    
   3860000   543.73943      4649.4489     -155.06093      1993.5427      3045.4538      4987.8036     -4400.4453     -10.078668      0.76488235     57461.869    
   3880000   545.32616      4659.0311     -234.00953      2029.4172      3163.9109      5009.9126     -4490.4351     -7.405196       0.76113136     57745.05     
   3900000   533.53319      4735.2054     -102.83163      1999.7994      3053.828       5059.1948     -4459.3336     -3.2508903      0.73411219     59870.371    
   3920000   545.86138      4513.6986     -172.85386      2018.4141      3043.3692      4842.1889     -4397.3001     -7.8795797      0.75794783     57987.591    
   3940000   536.45254      4842.2084     -145.9047       2022.1223      3207.9229      5012.5002     -4431.8479     -10.457221      0.75974542     57850.39     
   3960000   538.7455       4761.723      -166.17076      2012.2933      3077.4527      5015.5578     -4362.9037     -2.293381       0.75985891     57841.75     
   3980000   537.48831      4562.9487     -206.39603      2030.2475      3078.4147      4856.5342     -4377.5828     -6.5695141      0.74660113     58868.875    
   4000000   544.86765      4572.7443     -213.3141       2011.5406      3044.4283      4960.9391     -4411.6024     -7.5274727      0.7529724      58370.757    
   4020000   539.05995      4623.4531     -114.80389      2008.0739      3081.4872      4881.3779     -4412.229      -8.1310832      0.7485602      58714.808    
   4040000   530.02094      4617.4234     -208.14435      1976.7863      3183.6262      4956.7904     -4472.0336     -7.6211991      0.75233028     58420.577    
   4060000   541.72047      4518.3953     -291.66489      1978.2753      3094.8118      4966.5976     -4413.8942     -3.7072179      0.77834466     56468.003    
   4080000   546.46192      4588.3044     -188.20031      1988.4702      3131.2372      4896.2562     -4421.5905     -5.6248723      0.76784707     57240.003    
   4100000   545.38849      4545.6872     -252.42101      2015.7051      3157.8238      4912.5453     -4466.6079     -9.2265321      0.77204169     56929.01     
   4120000   531.65184      4453.1757     -306.47724      1993.6022      3077.2165      4929.1955     -4424.3845     -3.9872123      0.76246753     57643.857    
   4140000   536.03209      4627.76       -219.53755      2003.2846      3174.0961      4844.5046     -4353.9269     -8.4210146      0.75549528     58175.835    
   4160000   544.52415      4613.3081     -233.34177      1995.8222      3143.2562      4894.2686     -4366.8788     -7.4786025      0.77164321     56958.408    
   4180000   529.09899      4520.2489     -145.05202      2013.5364      3086.5006      4826.9963     -4441.2514     -8.1981903      0.75270381     58391.586    
   4200000   541.71887      4580.5965     -222.76695      2001.2691      3111.0767      4926.0495     -4415.8878     -7.0114295      0.74983877     58614.692    
   4220000   530.35717      4621.3149     -182.97736      2012.5108      3056.8385      4944.1218     -4386.8534     -10.296742      0.74703349     58834.804    
   4240000   535.7096       4573.4016     -155.81534      1988.2462      3032.5498      4922.6117     -4395.9899     -6.1740686      0.74571662     58938.701    
   4260000   541.36323      4657.6369     -255.0302       2012.4173      3044.2668      5089.6142     -4418.0422     -3.4762899      0.76290463     57610.83     
   4280000   536.85982      4682.9147     -160.42862      1984.3012      3169.0389      4948.1401     -4436.9535     -8.8909359      0.76257315     57635.873    
   4300000   543.68948      4842.5969     -194.23634      2006.6895      3192.1226      5075.6846     -4420.7316     -4.7783206      0.75191954     58452.489    
   4320000   529.15031      4632.8044     -190.04196      2007.3909      3196.7646      4820.1603     -4381.2408     -8.0567332      0.74720704     58821.138    
   4340000   534.41056      4532.693      -248.80903      1983.4353      3103.4629      4875.2718     -4360.9416     -7.8840956      0.7602792      57809.774    
   4360000   538.64762      4636.3268     -182.71523      2012.6801      3152.8888      4859.126      -4386.0611     -7.7390674      0.7383058      59530.304    
   4380000   540.02279      4677.0946     -153.71056      2023.4956      3088.5828      4934.3071     -4396.4446     -7.162045       0.7475003      58798.062    
   4400000   543.05652      4678.1326     -179.43668      2001.3007      3113.4245      4951.1982     -4386.4436     -9.5240134      0.73694844     59639.951    
   4420000   541.3697       4486.7527     -221.63268      2000.7369      3109.7136      4818.5144     -4404.0002     -4.5177608      0.76152639     57715.096    
   4440000   543.52872      4645.3539     -207.15985      2011.2149      3127.1243      4928.6436     -4393.9174     -8.1281638      0.74961858     58631.909    
   4460000   537.81879      4657.6889     -195.58351      1995.0892      3101.2267      4977.9333     -4403.5954     -5.3561349      0.73873936     59495.367    
   4480000   528.60565      4657.4661     -200.09637      2002.9882      3100.0848      4971.2977     -4397.7727     -6.8757382      0.75210154     58438.344    
   4500000   549.08816      4564.5296     -178.9885       2005.0598      2995.5685      4921.4296     -4357.3207     -9.1909132      0.76359051     57559.082    
   4520000   542.69165      4732.6415     -149.72743      2010.6572      3158.4307      4949.1655     -4421.6983     -1.7784014      0.75077862     58541.317    
   4540000   525.39029      4600.1082     -172.70834      2002.5507      3092.9272      4909.2837     -4412.8144     -6.840408       0.73105358     60120.858    
   4560000   538.57152      4475.2527     -189.61634      2008.4282      3085.0057      4839.9897     -4448.1422     -8.4030022      0.76244588     57645.493    
   4580000   540.6025       4517.0017     -208.4689       2025.0082      3102.806       4781.3245     -4363.7374     -7.899152       0.75936419     57879.433    
   4600000   536.17528      4682.0603     -176.29503      2019.0645      3160.7619      4867.0955     -4370.8622     -5.2558742      0.74174555     59254.24     
   4620000   554.40615      4660.4326     -231.15642      1999.7208      3176.0166      4885.9316     -4350.5571     -7.503582       0.73719922     59619.663    
   4640000   541.67765      4767.1323     -176.90439      2005.858       3251.0363      4905.2702     -4397.2713     -8.6733262      0.7327534      59981.392    
   4660000   549.58901      4622.5463     -198.61592      2005.3922      3147.6377      4848.911      -4362.6952     -6.0254337      0.75492214     58220.002    
   4680000   537.5128       4412.3161     -205.64633      2010.0794      2997.3896      4850.5847     -4422.569      -5.3405156      0.73450015     59838.747    
   4700000   541.44001      4754.33       -167.85189      2017.6683      3204.2119      4943.0651     -4427.5832     -3.5775553      0.75409451     58283.9      
   4720000   540.2809       4640.0871     -143.13872      2005.0746      3070.4074      4954.5218     -4427.2789     -8.13243        0.74646295     58879.773    
   4740000   541.82422      4800.3671     -166.18198      2000.7806      3094.375       5120.8246     -4427.833      -9.3557069      0.73616715     59703.246    
   4760000   550.73077      4625.4233     -170.66597      2027.7335      3004.8642      4999.5059     -4418.9074     -4.7941621      0.74367558     59100.46     
   4780000   540.14082      4608.9324     -207.65164      2025.9211      3110.9658      4824.1326     -4326.0395     -6.497021       0.76290879     57610.516    
   4800000   546.93154      4558.626      -237.80969      2024.9236      3152.9729      4857.6999     -4420.5089     -6.4389573      0.76285387     57614.663    
   4800107   543.4567       4713.7642     -197.35385      2028.9351      3188.4716      4977.154      -4464.1714     -6.9509459      0.75903626     57904.439    
Loop time of 3673.66 on 24 procs for 1200000 steps with 4984 atoms

Performance: 7.056 ns/day, 3.402 hours/ns, 326.650 timesteps/s, 1.628 Matom-step/s
99.5% CPU use with 24 MPI tasks x no OpenMP threads

MPI task timing breakdown:
Section |  min time  |  avg time  |  max time  |%varavg| %total
---------------------------------------------------------------
Pair    | 1666.6     | 1918.2     | 2167.3     | 307.1 | 52.22
Bond    | 576.16     | 616.67     | 656.68     |  80.1 | 16.79
Kspace  | 663.4      | 931.27     | 1210.3     | 472.7 | 25.35
Neigh   | 45.213     | 45.264     | 45.293     |   0.3 |  1.23
Comm    | 115.92     | 117.5      | 118.41     |   5.2 |  3.20
Output  | 0.0033306  | 0.0037209  | 0.012177   |   2.9 |  0.00
Modify  | 31.002     | 32.388     | 34.03      |  15.9 |  0.88
Other   |            | 12.35      |            |       |  0.34

Nlocal:        207.667 ave         232 max         173 min
Histogram: 2 0 1 2 3 5 2 3 3 3
Nghost:        4411.88 ave        4477 max        4357 min
Histogram: 2 3 0 3 6 3 4 2 0 1
Neighs:        64925.7 ave       78757 max       51822 min
Histogram: 1 2 6 1 2 4 2 3 0 3

Total # of neighbors = 1558217
Ave neighs/atom = 312.64386
Ave special neighs/atom = 5.8719904
Neighbor list builds = 16323
Dangerous builds = 0
PPPM initialization ...
  using 12-bit tables for long-range coulomb (../kspace.cpp:342)
  G vector (1/distance) = 0.092278111
  grid = 3 3 3
  stencil order = 5
  estimated absolute RMS force accuracy = 0.35097456
  estimated relative force accuracy = 0.0010569495
  using double precision KISS FFT
  3d grid and FFT values/proc = 252 3
Generated 28 of 28 mixed pair_coeff terms from sixthpower/sixthpower mixing rule
Setting up Verlet run ...
  Unit style    : real
  Current step  : 4800107
  Time step     : 0.25
WARNING: Inconsistent image flags (../domain.cpp:815)
Per MPI rank memory allocation (min/avg/max) = 15.47 | 15.48 | 15.49 Mbytes
   Step          Temp          PotEng         E_vdwl         E_coul         E_bond        E_angle        E_dihed        E_impro        Density         Volume    
   4800107   543.4567       4713.7644     -197.35385      2029.2742      3188.4716      4977.154      -4464.1714     -6.9509459      0.75903626     57904.439    
   4820000   518.80005      4130.4909     -232.09262      2015.7805      2955.1354      4699.521      -4488.0198     -7.1494265      0.75757756     58015.933    
   4840000   523.13729      4314.5604     -220.69412      2039.3543      2975.8208      4782.9841     -4445.0873     -5.5008679      0.75270666     58391.365    
   4860000   525.66386      3957.3341     -274.35895      2004.5303      2938.8978      4606.9618     -4500.6638     -5.5580892      0.77484702     56722.898    
   4880000   515.11853      4314.2357     -213.05059      2013.1666      2941.2565      4857.9907     -4465.4435     -7.012883       0.76234859     57652.85     
   4900000   517.85135      4243.0106     -222.13163      2040.0121      2955.4002      4740.7158     -4449.8292     -8.55695        0.76280267     57618.53     
   4920000   519.59908      4308.6857     -268.61943      1982.1717      3036.5709      4855.6187     -4476.4391     -7.8694976      0.75538913     58184.01     
   4940000   529.56131      4236.9103     -237.97418      2017.9805      2938.4804      4857.115      -4517.2615     -8.9165488      0.77682691     56578.329    
   4960000   517.11176      4215.4447     -196.88773      2029.2791      2957.91        4732.252      -4489.6486     -4.5466189      0.73813397     59544.162    
   4980000   526.22673      4108.8951     -262.66037      1979.5603      2938.1202      4730.6329     -4457.2061     -6.7681155      0.76535043     57426.725    
   5000000   526.18508      4286.4362     -141.55623      2011.0678      2987.0144      4629.4892     -4380.9798     -5.9426712      0.75529257     58191.449    
   5020000   513.97544      4013.4182     -328.22807      1964.3593      2929.9604      4722.1796     -4453.3051     -8.7464162      0.78672794     55866.287    
   5040000   529.56645      4330.1108     -234.89394      1980.8495      2967.0278      4862.7238     -4425.3241     -7.5927878      0.74801039     58757.966    
   5060000   526.75565      4251.8852     -209.90264      2035.3059      2984.6037      4686.1091     -4426.4863     -5.3169431      0.75756964     58016.539    
   5080000   525.72289      4137.3542     -210.70741      1986.8851      2834.2477      4833.3428     -4487.6294     -6.2511611      0.77076279     57023.47     
   5100000   513.81458      4132.0004     -304.31965      1997.8465      3039.3473      4647.6242     -4428.1402     -7.7425824      0.76948589     57118.096    
   5120000   529.1145       4418.535      -199.80234      2009.2037      3097.3843      4733.2614     -4404.8092     -4.1260496      0.75680396     58075.236    
   5140000   525.11572      4280.9548     -183.04409      2014.9003      2998.9779      4703.1905     -4431.8257     -8.7993251      0.75398006     58292.747    
   5160000   520.23817      4414.6975     -210.34485      2012.5396      3031.7249      4849.4461     -4449.1734     -6.9643512      0.74221256     59216.957    
   5180000   527.90108      4221.4598     -202.21814      2010.1477      2916.6496      4758.8282     -4441.4717     -7.7283902      0.76132803     57730.133    
   5200000   526.3136       4304.0127     -238.21452      2013.2168      2933.4075      4821.6998     -4408.5835     -5.1429532      0.75941803     57875.33     
   5220000   526.03336      4259.1237     -265.94791      1983.7309      3100.3229      4730.1409     -4471.0272     -6.0821237      0.75775163     58002.605    
   5240000   519.33551      4231.9622     -258.54981      1998.8764      2990.9735      4727.2796     -4409.074      -5.3942812      0.76483692     57465.281    
   5260000   529.80709      4241.4482     -232.298        2007.7891      3014.9072      4756.2952     -4486.8415     -5.8519373      0.77411848     56776.282    
   5280000   525.29458      4139.6254     -323.68021      1995.5794      2945.4932      4775.1423     -4429.9272     -10.447561      0.76594333     57382.272    
   5300000   527.95227      4294.1346     -270.38478      2033.9623      3029.3334      4813.081      -4496.648      -3.0141242      0.79256152     55455.088    
   5320000   517.54763      4290.6974     -256.79028      1994.9866      2956.794       4850.3847     -4439.3319     -3.7477154      0.76879441     57169.47     
   5340000   525.95914      4046.7992     -315.83003      1992.6878      2855.9436      4799.2046     -4463.5826     -9.4544859      0.75984344     57842.927    
   5360000   519.42787      4128.6423     -260.51941      2009.2049      3006.9674      4623.7647     -4429.6638     -8.98586        0.77286816     56868.133    
   5380000   524.82223      4325.4953     -217.42507      2015.5159      2941.112       4849.2616     -4440.9684     -9.5164743      0.7476756      58784.276    
   5400000   533.7626       4246.778      -252.11612      2007.374       2946.7157      4787.3941     -4419.5053     -10.516844      0.76010671     57822.893    
   5420000   523.35649      4155.8038     -215.40855      1995.416       2817.1218      4779.4903     -4403.5995     -4.700062       0.77354993     56818.011    
   5440000   520.95039      4244.6723     -213.80398      2037.4229      2934.3884      4755.4019     -4448.6034     -7.6470376      0.76178412     57695.57     
   5460000   518.13404      4215.5569     -236.44283      1996.1537      2939.763       4780.3161     -4450.4417     -1.3071961      0.73447164     59841.07     
   5480000   510.1342       4293.8909     -254.45645      1996.8141      3022.1678      4827.3329     -4475.7406     -9.5353266      0.7650262      57451.064    
   5500000   525.13538      4313.3574     -279.62733      2021.1395      3034.328       4832.0295     -4473.3667     -8.6536099      0.76196563     57681.826    
   5520000   522.60811      4248.137      -254.35296      2000.0003      2981.5692      4831.5328     -4490.1246     -7.9562198      0.76976331     57097.511    
   5540000   512.39444      4298.4939     -220.97639      2037.9296      2922.0228      4786.9736     -4410.1624     -4.9331265      0.76612674     57368.535    
   5560000   530.7886       4199.5921     -247.01679      2013.9547      2863.9281      4775.1661     -4387.5801     -6.0232556      0.77126415     56986.402    
   5580000   516.0758       4222.9089     -212.57038      2027.0283      2925.6887      4712.9825     -4408.7825     -8.7227084      0.75268467     58393.07     
   5600000   522.79849      4278.768      -252.02417      2015.1844      2864.9507      4872.5603     -4403.7166     -5.8118504      0.76408321     57521.967    
   5620000   527.08194      4406.6242     -241.10195      2013.6053      3016.682       4863.8883     -4426.4629     -7.4500608      0.75651996     58097.038    
   5640000   517.86989      4260.8544     -234.97608      2036.1923      2955.2548      4819.0676     -4491.7        -10.573558      0.76349722     57566.115    
   5660000   512.19421      4192.5777     -332.90227      1995.4341      2950.4899      4864.8583     -4465.4162     -7.7498192      0.77251798     56893.911    
   5680000   512.70429      4324.049      -289.14987      2014.2159      2983.6501      4869.3044     -4435.7343     -5.9981173      0.77254351     56892.031    
   5700000   524.73674      4134.76       -306.97887      2003.2298      2946.9609      4754.8207     -4445.3032     -5.4570527      0.78145326     56243.375    
   5720000   520.79726      4254.1492     -228.99485      1986.4991      2958.2374      4763.0347     -4406.5225     -6.0834116      0.76244488     57645.569    
   5740000   523.4319       4258.1396     -197.95568      2036.3242      2850.1096      4797.1117     -4405.3686     -9.5724463      0.74871804     58702.43     
   5760000   522.3357       4296.0581     -288.15837      2038.2067      3096.6809      4719.8857     -4450.8187     -7.3381164      0.77811905     56484.376    
   5780000   515.61848      4211.5716     -283.95499      1987.0918      2996.8598      4748.2099     -4413.6579     -10.637467      0.75709495     58052.915    
   5800000   514.37352      4180.9845     -227.34999      1984.639       2946.0833      4712.0534     -4413.4166     -8.5387964      0.75956143     57864.403    
   5820000   515.97367      4161.5185     -186.48989      2019.9282      2921.0887      4703.8345     -4478.9372     -5.4171767      0.76019923     57815.856    
   5840000   519.95096      4268.1541     -200.2088       1993.8513      2981.8441      4772.6334     -4459.5548     -8.0331325      0.75963664     57858.674    
   5860000   516.97192      4394.1403     -295.14637      2028.1341      3115.6852      4807.5045     -4438.5008     -11.026418      0.75885767     57918.066    
   5880000   525.65881      4355.1624     -257.37599      2044.0517      2932.0012      4885.7546     -4433.1065     -3.559747       0.76228253     57657.846    
   5900000   521.49812      4323.7674     -244.32826      1998.2137      3075.3321      4726.904      -4411.2744     -8.6764462      0.74964846     58629.573    
   5920000   518.51597      4215.5093     -244.10463      1985.5453      3017.8671      4718.8241     -4443.6061     -6.2920302      0.75408216     58284.854    
   5940000   517.40035      4172.2788     -248.66243      1981.9349      2981.8711      4693.9498     -4417.9757     -6.4349439      0.74614092     58905.185    
   5960000   517.86681      4177.3604     -289.46478      2004.6595      2868.5417      4850.5591     -4435.7163     -8.716156       0.77851659     56455.533    
   5980000   513.07395      4209.5721     -325.60873      2004.2358      2952.4117      4842.4237     -4445.7067     -5.8105113      0.77834506     56467.974    
   6000000   521.54265      4224.3393     -320.3058       1972.3954      3064.5344      4818.6339     -4493.0357     -5.9895835      0.78146132     56242.795    
   6000107   523.55835      4225.5162     -376.56748      1987.6505      3079.9059      4825.7337     -4472.0121     -7.4059907      0.77375228     56803.153    
Loop time of 3694.6 on 24 procs for 1200000 steps with 4984 atoms

Performance: 7.016 ns/day, 3.421 hours/ns, 324.798 timesteps/s, 1.619 Matom-step/s
99.5% CPU use with 24 MPI tasks x no OpenMP threads

MPI task timing breakdown:
Section |  min time  |  avg time  |  max time  |%varavg| %total
---------------------------------------------------------------
Pair    | 1697.1     | 1938.5     | 2175.6     | 283.3 | 52.47
Bond    | 564.51     | 616.38     | 662.62     |  92.1 | 16.68
Kspace  | 649.2      | 932.18     | 1205.7     | 444.1 | 25.23
Neigh   | 44.465     | 44.506     | 44.545     |   0.3 |  1.20
Comm    | 116.89     | 118        | 119.09     |   4.3 |  3.19
Output  | 0.003376   | 0.0036675  | 0.0098443  |   2.1 |  0.00
Modify  | 31.053     | 32.404     | 34.032     |  15.2 |  0.88
Other   |            | 12.59      |            |       |  0.34

Nlocal:        207.667 ave         236 max         168 min
Histogram: 1 1 0 4 4 3 2 3 3 3
Nghost:        4531.29 ave        4609 max        4438 min
Histogram: 1 0 4 3 1 4 4 3 2 2
Neighs:        66824.7 ave       79271 max       53144 min
Histogram: 1 2 3 3 2 3 3 3 1 3

Total # of neighbors = 1603793
Ave neighs/atom = 321.78832
Ave special neighs/atom = 5.8719904
Neighbor list builds = 15828
Dangerous builds = 0
PPPM initialization ...
  using 12-bit tables for long-range coulomb (../kspace.cpp:342)
  G vector (1/distance) = 0.092748602
  grid = 3 3 3
  stencil order = 5
  estimated absolute RMS force accuracy = 0.3512889
  estimated relative force accuracy = 0.0010578961
  using double precision KISS FFT
  3d grid and FFT values/proc = 252 3
Generated 28 of 28 mixed pair_coeff terms from sixthpower/sixthpower mixing rule
Setting up Verlet run ...
  Unit style    : real
  Current step  : 6000107
  Time step     : 0.25
WARNING: Inconsistent image flags (../domain.cpp:815)
Per MPI rank memory allocation (min/avg/max) = 15.47 | 15.48 | 15.49 Mbytes
   Step          Temp          PotEng         E_vdwl         E_coul         E_bond        E_angle        E_dihed        E_impro        Density         Volume    
   6000107   523.55835      4225.7474     -376.56748      1992.0116      3079.9059      4825.7337     -4472.0121     -7.4059907      0.77375228     56803.153    
   6020000   491.97756      3823.8106     -383.25047      1982.9104      2820.567       4641.5557     -4418.1091     -3.5849272      0.78006225     56343.669    
   6040000   508.49092      3744.5856     -320.44891      1973.3509      2805.2389      4608.6765     -4498.4876     -6.9768262      0.77793242     56497.927    
   6060000   494.10151      3842.5268     -277.75733      1985.3822      2877.0851      4567.9835     -4490.8882     -2.4509448      0.77454535     56744.991    
   6080000   492.15014      3940.434      -287.07442      2018.0164      2869.1353      4686.9711     -4520.6916     -9.5738591      0.75490428     58221.38     
   6100000   506.11095      3732.6752     -292.33456      2003.7774      2815.3832      4492.6234     -4465.1057     -5.6133324      0.77617139     56626.113    
   6120000   501.24868      3732.9221     -303.87648      1989.273       2841.087       4474.754      -4447.9588     -3.907263       0.78414464     56050.334    
   6140000   491.81254      3843.5383     -309.65375      1976.9055      2915.534       4591.6831     -4508.8025     -5.2304545      0.7787162      56441.061    
   6160000   492.94325      3965.9164     -297.07798      1982.5989      2921.9471      4652.6554     -4470.3656     -7.2454358      0.76948077     57118.476    
   6180000   499.93891      3869.3692     -408.01828      1987.0161      2940.8028      4648.8361     -4475.4653     -7.1779567      0.78463059     56015.62     
   6200000   496.59699      3743.0017     -377.88125      2001.6195      2769.344       4659.8033     -4482.4077     -10.646972      0.79903209     55006.012    
   6220000   506.37768      3821.5227     -341.51702      1973.4212      2930.1513      4578.1322     -4497.3756     -4.7641053      0.77334527     56833.048    
   6240000   500.42607      3724.4689     -310.13625      1996.0029      2894.0755      4472.5501     -4503.7557     -7.5642064      0.77251564     56894.083    
   6260000   496.96463      3774.2885     -281.48207      2002.7584      2800.1895      4564.0117     -4484.1364     -10.429543      0.77315354     56847.142    
   6280000   491.6868       3835.6224     -358.87813      1996.8882      2883.8794      4610.2035     -4472.8073     -6.5451012      0.78278435     56147.736    
   6300000   494.97548      3824.6401     -299.17633      2016.7603      2849.0468      4606.5        -4522.6519     -9.1236094      0.7755245      56673.347    
   6320000   504.0308       3904.2894     -347.23267      2000.4132      2924.9347      4625.5814     -4478.6796     -4.0063118      0.78820608     55761.52     
   6340000   506.02825      3960.562      -372.74159      1983.6032      2912.5575      4726.8527     -4467.3381     -6.0840023      0.7841775      56047.985    
   6360000   500.17374      3979.6113     -313.27998      2034.8627      2987.449       4578.9172     -4484.0007     -7.3995515      0.77518084     56698.471    
   6380000   505.1946       3871.359      -342.49692      2040.6482      2832.0176      4664.0957     -4500.0771     -6.4792948      0.77940349     56391.291    
   6400000   506.07449      3888.7127     -268.21663      2036.1256      2799.2174      4650.6933     -4505.2594     -7.207985       0.7755338      56672.667    
   6420000   497.78395      3925.8701     -286.84013      2014.5825      2837.7512      4675.287      -4490.4008     -7.9004514      0.7773595      56539.566    
   6440000   496.8144       3857.0146     -328.33314      2027.2508      2902.1         4583.6949     -4504.3806     -6.7326902      0.77226911     56912.245    
   6460000   495.91466      4045.0651     -333.28295      2005.3682      2966.1139      4769.4543     -4540.8564     -5.4144758      0.76945317     57120.525    
   6480000   499.61436      3890.0131     -288.31085      2024.3105      2917.3181      4495.3879     -4436.4973     -5.7422683      0.76729423     57281.245    
   6500000   499.41152      3759.2691     -309.16112      2009.9178      2796.6825      4578.8228     -4491.6118     -8.4300777      0.78634526     55893.474    
   6520000   500.08816      3696.4689     -382.98254      2005.1316      2846.193       4550.1515     -4499.3496     -5.7619261      0.78797874     55777.607    
   6540000   494.81222      3685.2087     -349.56248      2004.5339      2782.1588      4570.507      -4503.3176     -2.8659007      0.79631759     55193.518    
   6560000   498.02353      3862.6078     -369.86938      2001.2247      2921.5418      4646.7798     -4512.4536     -8.0896032      0.77664845     56591.33     
   6580000   493.51226      3647.3236     -362.18398      2020.1657      2898.6212      4488.2953     -4574.9417     -6.1644207      0.79575823     55232.314    
   6600000   487.72624      3806.8501     -314.1465       2008.067       2740.4986      4671.9311     -4474.8322     -8.0456376      0.77816267     56481.21     
   6620000   495.7741       3897.0983     -340.93259      2012.8896      2871.5114      4632.615      -4460.9017     -1.1886949      0.7846802      56012.078    
   6640000   507.59952      3931.4805     -330.64594      2001.3678      2912.401       4599.9644     -4431.6834     -3.2978609      0.78498634     55990.234    
   6660000   502.91677      4059.1796     -281.32517      2018.1835      2974.9903      4655.0969     -4487.6788     -4.1376716      0.77466322     56736.357    
   6680000   499.05288      4016.9703     -324.17277      1979.7359      2786.5117      4846.9336     -4447.2271     -8.3430672      0.76989886     57087.458    
   6700000   495.60084      3782.1792     -314.45318      1993.34        2887.5697      4617.1318     -4577.3961     -7.2590471      0.77674646     56584.19     
   6720000   504.87479      3991.9626     -294.23887      2018.6285      2870.1693      4683.1276     -4462.8414     -6.2124777      0.77986072     56358.229    
   6740000   498.93905      4066.2628     -278.52986      2003.5792      2930.8172      4725.2003     -4489.7952     -8.6370065      0.78010985     56340.231    
   6760000   491.82256      3890.985      -300.25409      2001.1387      2868.7352      4612.4809     -4469.0318     -5.3065932      0.78795286     55779.439    
   6780000   495.6169       3839.8729     -337.6113       1997.2754      2904.0219      4565.8654     -4468.0235     -5.7063169      0.77681131     56579.466    
   6800000   492.80725      3881.325      -395.09542      1996.4745      2934.4563      4715.3628     -4547.7232     -5.4276759      0.79729046     55126.169    
   6820000   495.32583      3782.0995     -345.71459      2033.2084      2788.2116      4605.9449     -4479.4973     -3.8191321      0.79042985     55604.642    
   6840000   505.0295       3945.4327     -327.90221      1998.4712      2833.0706      4702.347      -4437.1318     -6.7688638      0.77809796     56485.907    
   6860000   490.01515      3840.1689     -389.21833      1998.9726      2841.3457      4679.5242     -4466.4338     -7.3547361      0.79464001     55310.038    
   6880000   502.32973      3895.3632     -380.69356      1980.0367      2874.6202      4760.6249     -4513.1284     -9.3926151      0.80206905     54797.737    
   6900000   504.06417      3947.3541     -427.13154      2014.2225      2957.7207      4721.9099     -4499.2743     -3.4456915      0.80127138     54852.288    
   6920000   500.86649      3754.3431     -421.24544      2033.9774      2850.2202      4602.5677     -4488.9494     -5.8392023      0.77689852     56573.114    
   6940000   499.89532      3925.5672     -283.82479      1992.2343      2837.7778      4676.2961     -4473.3405     -7.2082161      0.7744271      56753.656    
   6960000   498.59277      3643.0079     -344.47033      1995.8123      2693.6878      4625.6435     -4501.4756     -9.5711484      0.77304566     56855.075    
   6980000   502.26143      4001.4969     -259.90435      2051.2228      2850.0174      4726.5153     -4544.1293     -5.7576746      0.77482705     56724.36     
   7000000   487.39586      3801.9871     -362.70942      2009.0789      2903.2913      4539.8649     -4468.7339     -2.0107551      0.79172668     55513.563    
   7020000   500.51449      3771.2299     -330.76028      2038.6654      2806.1178      4609.2159     -4530.3474     -5.1537438      0.79083279     55576.311    
   7040000   503.69183      3807.4964     -350.18291      2029.8403      2871.9897      4567.253      -4486.3291     -8.4225974      0.77548526     56676.215    
   7060000   511.19799      3959.6345     -313.54326      2019.9008      2920.924       4603.9884     -4450.2112     -4.6448395      0.7824135      56174.349    
   7080000   489.55196      3812.9706     -296.41275      2007.0173      2855.5941      4568.0861     -4497.8874     -6.7173083      0.77739559     56536.941    
   7100000   503.52303      4038.2008     -302.41403      1993.9328      2852.1401      4787.8277     -4472.1851     -4.3707891      0.77217221     56919.387    
   7120000   515.16248      3900.7936     -261.95035      2005.5104      2869.1172      4586.3874     -4475.0059     -6.6128416      0.77747142     56531.427    
   7140000   510.0084       3901.4717     -302.90419      2025.9084      2936.9179      4486.378      -4419.6011     -8.8668275      0.77627332     56618.677    
   7160000   500.88979      4040.4661     -282.7765       2011.595       2969.22        4600.0779     -4436.977      -4.1725967      0.76521151     57437.151    
   7180000   499.05737      3815.806      -364.99526      2029.1365      2822.1058      4646.2091     -4495.8102     -4.2971634      0.77481132     56725.512    
   7200000   493.96497      4009.608      -313.76859      1992.749       2900.7278      4720.2922     -4467.0005     -6.6922639      0.77408993     56778.376    
   7200107   506.31154      3885.1613     -298.13889      1993.1038      2827.5963      4736.3526     -4551.2846     -5.7527045      0.77673429     56585.076    
Loop time of 3711.44 on 24 procs for 1200000 steps with 4984 atoms

Performance: 6.984 ns/day, 3.437 hours/ns, 323.325 timesteps/s, 1.611 Matom-step/s
99.5% CPU use with 24 MPI tasks x no OpenMP threads

MPI task timing breakdown:
Section |  min time  |  avg time  |  max time  |%varavg| %total
---------------------------------------------------------------
Pair    | 1803.7     | 1988.1     | 2236.6     | 270.7 | 53.57
Bond    | 583.29     | 616.22     | 673.08     |  85.4 | 16.60
Kspace  | 611.1      | 899.57     | 1116.1     | 437.0 | 24.24
Neigh   | 43.119     | 43.187     | 43.229     |   0.5 |  1.16
Comm    | 117.39     | 119.39     | 120.15     |   5.5 |  3.22
Output  | 0.0031743  | 0.0034573  | 0.0095014  |   2.1 |  0.00
Modify  | 31.197     | 32.423     | 33.902     |  13.9 |  0.87
Other   |            | 12.51      |            |       |  0.34

Nlocal:        207.667 ave         237 max         179 min
Histogram: 1 1 2 5 2 5 5 2 0 1
Nghost:        4495.92 ave        4528 max        4467 min
Histogram: 3 2 3 3 3 1 3 2 1 3
Neighs:        66157.5 ave       80714 max       52040 min
Histogram: 1 1 5 2 4 2 5 2 1 1

Total # of neighbors = 1587780
Ave neighs/atom = 318.57544
Ave special neighs/atom = 5.8719904
Neighbor list builds = 15253
Dangerous builds = 0
PPPM initialization ...
  using 12-bit tables for long-range coulomb (../kspace.cpp:342)
  G vector (1/distance) = 0.092843044
  grid = 3 3 3
  stencil order = 5
  estimated absolute RMS force accuracy = 0.35134878
  estimated relative force accuracy = 0.0010580764
  using double precision KISS FFT
  3d grid and FFT values/proc = 252 3
Generated 28 of 28 mixed pair_coeff terms from sixthpower/sixthpower mixing rule
Setting up Verlet run ...
  Unit style    : real
  Current step  : 7200107
  Time step     : 0.25
WARNING: Inconsistent image flags (../domain.cpp:815)
Per MPI rank memory allocation (min/avg/max) = 15.47 | 15.48 | 15.49 Mbytes
   Step          Temp          PotEng         E_vdwl         E_coul         E_bond        E_angle        E_dihed        E_impro        Density         Volume    
   7200107   506.31154      3885.2062     -298.13889      1993.9789      2827.5963      4736.3526     -4551.2846     -5.7527045      0.77673429     56585.076    
   7220000   487.23068      3689.3183     -279.97601      2004.6916      2686.4609      4629.3829     -4528.6546     -5.1317183      0.76755464     57261.811    
   7240000   479.33848      3568.9923     -266.75923      2010.6028      2670.6553      4455.0232     -4474.6872     -8.3446916      0.77768537     56515.874    
   7260000   488.58292      3423.3542     -371.59624      1991.4049      2707.5932      4402.9889     -4483.284      -5.9259854      0.79323542     55407.976    
   7280000   483.9395       3363.2559     -383.3163       2012.1769      2781.1277      4260.9959     -4482.6673     -7.5647614      0.78443889     56029.309    
   7300000   479.33457      3415.1446     -376.4798       2001.9107      2701.218       4352.6688     -4441.2709     -5.3010037      0.78544161     55957.78     
   7320000   489.35033      3500.6009     -352.02288      2019.6913      2786.5113      4410.6549     -4541.6251     -5.0004414      0.77798273     56494.273    
   7340000   485.15617      3538.8647     -404.14411      2002.0251      2866.1865      4400.3233     -4500.0552     -7.8555016      0.78679419     55861.583    
   7360000   469.95966      3517.2122     -323.1671       2005.7671      2747.5988      4437.2506     -4527.8709     -4.7207512      0.78160252     56232.634    
   7380000   484.35667      3442.5496     -386.92514      2012.4681      2824.3818      4324.2084     -4506.5922     -7.6842848      0.80016637     54928.038    
   7400000   482.70556      3494.9755     -375.09006      2026.5274      2797.229       4376.1842     -4506.3641     -5.7089203      0.79025303     55617.084    
   7420000   471.98065      3480.7516     -449.3219       2008.1517      2801.0106      4525.717      -4579.8783     -7.7680423      0.79857821     55037.276    
   7440000   485.96145      3406.1417     -403.0246       2005.74        2735.5338      4409.7426     -4517.0081     -7.3878857      0.79873497     55026.474    
   7460000   482.92701      3514.0139     -366.95448      1997.6417      2747.2609      4461.5802     -4503.2157     -4.9090848      0.78613357     55908.525    
   7480000   475.25401      3513.9588     -358.18486      2002.9742      2800.1055      4447.2148     -4554.7197     -5.8054239      0.79249368     55459.835    
[...]
  24800000   199.80271     -1372.4958     -1100.2892      2002.4718      1156.4897      2397.2517     -4970.5154     -1.798398       0.92568853     47479.868    
  24820000   197.35689     -1370.2069     -1168.9072      2031.2081      1185.0736      2376.5452     -4936.219      -1.9006618      0.93137376     47190.044    
  24840000   201.23966     -1328.1141     -1131.3092      2023.2059      1189.2751      2428.9398     -4980.5112     -1.5013511      0.92629504     47448.779    
  24860000   198.09173     -1437.5622     -1160.8286      1984.1779      1178.5262      2399.146      -4979.2283     -3.1275649      0.93803116     46855.127    
  24880000   199.27862     -1356.4938     -1138.3874      2027.4983      1145.2883      2414.2618     -4945.4781     -3.5228498      0.93229246     47143.542    
  24900000   194.50769     -1438.7105     -1166.4855      1993.5296      1187.3116      2378.513      -4972.247      -3.1587317      0.93415629     47049.481    
  24920000   199.88342     -1422.8114     -1121.1927      2020.9724      1140.0547      2366.7231     -4970.0233     -3.301684       0.92941044     47289.73     
  24940000   204.83764     -1383.8203     -1122.8003      2011.7107      1164.3863      2390.5184     -4968.985      -2.4389152      0.92615069     47456.174    
  24960000   200.24924     -1390.1885     -1171.358       2012.1444      1193.4545      2361.3425     -4926.4349     -3.1795627      0.92883839     47318.855    
  24980000   199.22307     -1430.1312     -1178.0619      2018.6771      1153.3973      2384.696      -4950.4174     -2.3792521      0.94077193     46718.623    
  25000000   202.10529     -1330.2613     -1132.0097      2012.8702      1216.5131      2421.7919     -4990.904      -2.3186008      0.92627612     47449.748    
  25020000   197.5978      -1304.2362     -1170.9263      2026.3083      1239.3467      2445.0304     -4984.9676     -2.8107635      0.92704071     47410.614    
  25040000   198.71703     -1399.3298     -1131.1692      1995.5929      1162.3729      2354.4315     -4922.7295     -1.6404954      0.92856556     47332.758    
  25060000   202.06566     -1391.4442     -1120.6713      2027.406       1142.996       2395.7579     -4979.131      -1.5489137      0.92924138     47298.333    
  25080000   200.52377     -1402.3291     -1139.1641      2006.5656      1150.9119      2410.3274     -4973.0154     -1.796706       0.92896689     47312.309    
  25100000   202.15828     -1356.9783     -1101.9066      2025.3619      1165.3912      2398.4157     -4986.6609     -1.4983967      0.93120534     47198.579    
  25120000   199.48542     -1367.7786     -1139.0315      2002.3595      1171.4937      2410.2382     -4955.7056     -1.0074359      0.93067994     47225.224    
  25140000   203.92164     -1414.3385     -1122.5818      2015.3382      1167.1249      2340.7175     -4957.2948     -1.5408317      0.9304936      47234.681    
  25160000   199.29547     -1320.2501     -1147.802       2042.2394      1195.6338      2384.9818     -4936.443      -2.6243496      0.92971094     47274.445    
  25180000   202.7224      -1377.3077     -1158.4214      2022.4092      1169.0958      2395.1315     -4946.7792     -2.5039066      0.93847104     46833.165    
  25200000   200.05381     -1440.9486     -1160.5583      2005.9086      1180.4423      2395.076      -5004.2191     -1.4072246      0.93417577     47048.5      
  25200107   196.19004     -1393.9794     -1137.289       2031.1726      1122.2994      2444.1287     -4996.1448     -1.8885205      0.93466561     47023.843    
Loop time of 3970 on 24 procs for 1200000 steps with 4984 atoms

Performance: 6.529 ns/day, 3.676 hours/ns, 302.267 timesteps/s, 1.506 Matom-step/s
99.5% CPU use with 24 MPI tasks x no OpenMP threads

MPI task timing breakdown:
Section |  min time  |  avg time  |  max time  |%varavg| %total
---------------------------------------------------------------
Pair    | 2088.9     | 2352       | 2639.5     | 323.6 | 59.24
Bond    | 532.15     | 606.8      | 679.49     | 144.6 | 15.28
Kspace  | 482.14     | 810.86     | 1147.8     | 615.0 | 20.42
Neigh   | 23.831     | 23.849     | 23.87      |   0.2 |  0.60
Comm    | 126.22     | 128.42     | 132.24     |  12.8 |  3.23
Output  | 0.0034124  | 0.0038717  | 0.013726   |   3.3 |  0.00
Modify  | 30.464     | 34.677     | 36.9       |  27.5 |  0.87
Other   |            | 13.41      |            |       |  0.34

Nlocal:        207.667 ave         226 max         187 min
Histogram: 1 2 1 2 4 5 4 2 2 1
Nghost:        5081.21 ave        5116 max        5058 min
Histogram: 5 0 4 4 3 2 3 1 1 1
Neighs:        79558.5 ave       89430 max       69886 min
Histogram: 2 3 3 3 2 1 2 3 3 2

Total # of neighbors = 1909403
Ave neighs/atom = 383.10654
Ave special neighs/atom = 5.8719904
Neighbor list builds = 8106
Dangerous builds = 0
PPPM initialization ...
  using 12-bit tables for long-range coulomb (../kspace.cpp:342)
  G vector (1/distance) = 0.097463457
  grid = 3 3 3
  stencil order = 5
  estimated absolute RMS force accuracy = 0.35297401
  estimated relative force accuracy = 0.0010629707
  using double precision KISS FFT
  3d grid and FFT values/proc = 252 3
Generated 28 of 28 mixed pair_coeff terms from sixthpower/sixthpower mixing rule
Setting up Verlet run ...
  Unit style    : real
  Current step  : 25200107
  Time step     : 0.25
WARNING: Inconsistent image flags (../domain.cpp:815)
Per MPI rank memory allocation (min/avg/max) = 15.48 | 15.5 | 15.86 Mbytes
   Step          Temp          PotEng         E_vdwl         E_coul         E_bond        E_angle        E_dihed        E_impro        Density         Volume    
  25200107   196.19004     -1393.9441     -1137.289       2033.4282      1122.2994      2444.1287     -4996.1448     -1.8885205      0.93466561     47023.843    
  25220000   178.99779     -1702.0824     -1179.4878      2019.6682      1078.9439      2243.1638     -5005.5753     -0.40988145     0.93564002     46974.871    
  25240000   181.66677     -1735.0477     -1186.6761      2019.1629      1018.3168      2284.161      -5009.614      -1.9124232      0.94063135     46725.605    
  25260000   179.75194     -1769.7937     -1199.2047      2001.0249      1033.4755      2214.4522     -4959.5804     -1.5730317      0.93300431     47107.573    
  25280000   184.94404     -1739.0939     -1187.0377      2016.5123      1056.94        2187.0951     -4951.728      -2.4732355      0.94456581     46530.976    
  25300000   180.49416     -1733.7361     -1202.3589      2006.7484      1056.2503      2223.4925     -4958.9196     -0.40162991     0.94299777     46608.349    
  25320000   179.73358     -1674.5326     -1206.3176      2014.1273      1077.0134      2307.3336     -5006.4997     -1.7476146      0.93628192     46942.665    
  25340000   181.8494      -1683.2478     -1185.1573      2017.2406      1080.767       2282.6664     -5018.8161     -1.5206939      0.94108192     46703.234    
  25360000   179.46665     -1678.726      -1175.1508      2003.8068      1074.439       2246.7393     -4968.3701     -1.7204543      0.93618844     46947.353    
  25380000   179.40605     -1713.6667     -1184.5189      2018.1818      1029.4397      2299.1714     -5015.4086     -2.0502192      0.93967304     46773.257    
  25400000   178.71831     -1718.1454     -1176.8379      2004.5793      1055.2695      2229.5477     -4970.5881     -1.8613786      0.9406693      46723.72     
  25420000   176.3947      -1615.6257     -1198.6392      2041.0403      1062.6902      2328.0472     -4989.0459     -1.2592835      0.9366053      46926.457    
  25440000   180.45981     -1739.4088     -1178.1221      2020.5834      1043.8754      2222.2575     -4988.1745     -1.5478166      0.9298047      47269.678    
  25460000   176.99532     -1627.7233     -1200.2447      2029.3511      1088.0079      2281.4634     -4966.4377     -1.4151242      0.93878638     46817.433    
  25480000   184.95377     -1706.4146     -1194.5985      1993.4767      1088.3959      2270.0282     -5004.0376     -1.1815252      0.93640714     46936.388    
  25500000   181.14374     -1683.7842     -1246.0596      2026.5093      1100.5714      2289.7028     -4995.131      -0.94545055     0.94101833     46706.39     
  25520000   180.0199      -1761.2674     -1208.3043      2020.2048      1058.5385      2253.4179     -5024.4528     -2.2985626      0.94239156     46638.33     
  25540000   180.274       -1686.5996     -1203.3405      2012.1614      1092.8738      2275.089      -5003.164      -1.7960886      0.93306707     47104.405    
  25560000   178.85096     -1699.4546     -1192.3872      2007.8887      1053.1263      2260.5346     -4968.7352     -1.4826809      0.93725162     46894.098    
  25580000   177.39359     -1618.7299     -1173.9222      2011.1141      1068.9602      2316.3754     -4980.3337     -2.4629589      0.93288409     47113.644    
  25600000   178.43505     -1738.5297     -1196.9083      2022.3603      1056.2504      2237.54       -4996.1445     -3.2300749      0.94005612     46754.197    
  25620000   182.72673     -1691.7181     -1175.3447      2014.7904      1034.2372      2267.2311     -4972.094      -2.088476       0.9322877      47143.783    
  25640000   181.07781     -1642.5438     -1195.2663      2020.0392      1101.7851      2248.931      -4960.0098      0.32644293     0.93586225     46963.716    
  25660000   181.03247     -1704.3618     -1173.7954      2012.1363      1080.3682      2235.0216     -4998.7508     -0.97988195     0.93430501     47041.992    
  25680000   178.55674     -1718.1501     -1193.6887      1986.1138      1069.4983      2257.5461     -4976.6726     -2.6312623      0.93401732     47056.482    
  25700000   175.08693     -1652.3559     -1190.3569      2034.2728      1061.0859      2290.4483     -4987.5105     -1.9221338      0.9328095      47117.411    
  25720000   180.44828     -1685.6225     -1174.513       2007.1994      1072.5558      2240.9773     -4971.674      -1.7685789      0.93349051     47083.038    
  25740000   178.68666     -1709.3522     -1188.5058      2015.1722      1026.5719      2295.6733     -4998.2231     -1.5519353      0.93241088     47137.554    
  25760000   180.49362     -1707.9783     -1203.5831      2022.5265      1054.4614      2259.4218     -4979.6871     -2.7245067      0.93782275     46865.539    
  25780000   182.00706     -1703.7049     -1188.1514      2025.2025      1071.7833      2249.0807     -5002.1552     -0.94070444     0.93689458     46911.968    
  25800000   178.06281     -1740.7965     -1223.9629      2021.6094      1094.2775      2211.1439     -4984.7055     -0.83305498     0.93691547     46910.922    
  25820000   182.29531     -1681.8302     -1212.9915      2041.1992      1075.164       2221.6979     -4945.7979     -2.665345       0.93519323     46997.313    
  25840000   181.10711     -1724.0744     -1191.9319      2038.5961      1044.1459      2242.175      -4996.0595     -2.5722296      0.93658072     46927.689    
  25860000   181.6214      -1692.7526     -1194.1277      2003.9214      1072.5357      2279.6261     -4994.9059     -1.3465222      0.93386929     47063.941    
  25880000   178.00036     -1720.6972     -1191.7991      2010.8125      1026.0586      2293.5311     -4997.6596     -3.2658711      0.93843023     46835.201    
  25900000   181.51909     -1715.667      -1211.4113      2016.224       1051.236       2281.2289     -4994.2296     -0.27133298     0.93739822     46886.764    
  25920000   181.95617     -1671.9216     -1199.2887      2026.5952      1063.943       2291.8734     -4995.2676     -1.4326933      0.94124209     46695.286    
  25940000   182.5722      -1732.4272     -1175.5586      2028.5611      1049.7359      2230.9604     -5005.798      -2.0627806      0.93839529     46836.945    
  25960000   176.82213     -1756.3708     -1212.4132      2032.2566      1076.144       2233.4833     -5025.6873     -1.7012975      0.93636511     46938.495    
  25980000   176.89791     -1671.9615     -1157.0441      2027.0471      1041.5481      2268.7427     -4992.1005     -1.6791719      0.93266942     47124.488    
  26000000   180.47429     -1718.7191     -1176.5935      2021.4694      1056.8174      2245.1621     -5005.7899     -1.3352086      0.93688801     46912.297    
  26020000   181.0821      -1761.626      -1190.7583      2006.9288      1038.9179      2247.9781     -5004.1267     -2.1261572      0.94344245     46586.38     
  26040000   178.83476     -1725.8294     -1181.7559      2001.2502      1062.1869      2255.6259     -5004.3701     -0.30774819     0.93230648     47142.833    
  26060000   179.62749     -1679.1483     -1198.4402      2031.7841      1084.1285      2262.9028     -4999.2094     -1.9313577      0.93363781     47075.609    
  26080000   178.9958      -1712.9495     -1213.5282      2028.7036      1102.0268      2234.2618     -5003.7427     -2.2061593      0.9353589      46988.989    
  26100000   180.82542     -1695.1617     -1205.6367      2010.4796      1053.3445      2289.631      -4983.6517     -0.87990179     0.93565674     46974.031    
  26120000   182.69719     -1703.6176     -1177.0169      2036.1572      1095.6346      2204.9311     -5003.6429     -1.3922428      0.93487542     47013.29     
  26140000   178.2212      -1722.7327     -1177.4173      2015.5744      1058.5256      2236.5982     -4995.374      -2.1626504      0.93419326     47047.62     
  26160000   180.58947     -1752.1887     -1172.464       2023.9392      1055.999       2242.8396     -5041.2024     -2.7284192      0.93757342     46878.002    
  26180000   178.13871     -1693.1881     -1202.7391      2002.7591      1072.1786      2271.3816     -4977.0171     -1.4037326      0.93340981     47087.108    
  26200000   180.56599     -1723.5335     -1196.9585      2013.8419      1044.1007      2286.4974     -5010.9126     -1.8852291      0.93453072     47030.631    
  26220000   178.07562     -1685.2525     -1176.9194      2029.6984      1065.6394      2252.6258     -4995.5203     -2.251092       0.93462301     47025.986    
  26240000   179.47181     -1581.0564     -1149.3795      2023.0859      1068.4147      2318.9032     -4981.6285     -1.9547364      0.93580772     46966.453    
  26260000   183.12826     -1701.452      -1168.2577      2025.1177      1060.0369      2225.674      -4984.4959     -1.094479       0.93586739     46963.458    
  26280000   175.10941     -1681.9538     -1185.3886      2003.1761      1086.0606      2247.6485     -4973.9312     -1.0336863      0.93978565     46767.653    
  26300000   179.57025     -1651.637      -1178.0439      2021.668       1077.6565      2273.0874     -4986.1995     -1.4077447      0.93462459     47025.907    
  26320000   181.3673      -1704.995      -1181.0015      2003.4938      1056.3827      2290.0516     -5013.7936     -1.66899        0.93729903     46891.725    
  26340000   179.64932     -1674.2749     -1204.702       2062.9774      1061.6811      2217.889      -4950.6126     -3.1492905      0.93645263     46934.108    
  26360000   182.25409     -1763.1782     -1163.01        2006.971       1085.476       2171.7079     -5002.8593     -3.0798232      0.93816097     46848.643    
  26380000   184.7654      -1667.2933     -1148.8917      2022.4407      1047.7528      2240.8244     -4969.5048     -1.531648       0.93665617     46923.909    
  26400000   178.2452      -1614.1711     -1199.4174      2033.4426      1094.9241      2273.4815     -4956.4528     -1.8252654      0.9370613      46903.622    
  26400107   177.08426     -1693.4748     -1202.1014      2024.0123      1055.6553      2253.5564     -4965.1253     -1.1851307      0.93828598     46842.402    
Loop time of 3950.94 on 24 procs for 1200000 steps with 4984 atoms

Performance: 6.560 ns/day, 3.658 hours/ns, 303.725 timesteps/s, 1.514 Matom-step/s
99.5% CPU use with 24 MPI tasks x no OpenMP threads

MPI task timing breakdown:
Section |  min time  |  avg time  |  max time  |%varavg| %total
---------------------------------------------------------------
Pair    | 2125.3     | 2373.5     | 2596.9     | 301.5 | 60.07
Bond    | 533.33     | 605.98     | 686.73     | 138.6 | 15.34
Kspace  | 513.52     | 773.74     | 1054.5     | 592.2 | 19.58
Neigh   | 22.37      | 22.405     | 22.437     |   0.4 |  0.57
Comm    | 126.23     | 128.18     | 131.15     |  10.7 |  3.24
Output  | 0.0032455  | 0.003798   | 0.015335   |   3.9 |  0.00
Modify  | 30.554     | 33.955     | 35.989     |  23.6 |  0.86
Other   |            | 13.15      |            |       |  0.33

Nlocal:        207.667 ave         225 max         191 min
Histogram: 2 1 0 6 2 6 3 2 1 1
Nghost:        5124.08 ave        5151 max        5098 min
Histogram: 3 1 3 2 3 2 4 3 1 2
Neighs:        79928.8 ave       89785 max       69839 min
Histogram: 2 1 5 3 1 1 4 2 2 3

Total # of neighbors = 1918291
Ave neighs/atom = 384.88985
Ave special neighs/atom = 5.8719904
Neighbor list builds = 7493
Dangerous builds = 0
PPPM initialization ...
  using 12-bit tables for long-range coulomb (../kspace.cpp:342)
  G vector (1/distance) = 0.097561533
  grid = 3 3 3
  stencil order = 5
  estimated absolute RMS force accuracy = 0.35298115
  estimated relative force accuracy = 0.0010629923
  using double precision KISS FFT
  3d grid and FFT values/proc = 252 3
Generated 28 of 28 mixed pair_coeff terms from sixthpower/sixthpower mixing rule
Setting up Verlet run ...
  Unit style    : real
  Current step  : 26400107
  Time step     : 0.25
WARNING: Inconsistent image flags (../domain.cpp:815)
Per MPI rank memory allocation (min/avg/max) = 15.48 | 15.51 | 15.87 Mbytes
   Step          Temp          PotEng         E_vdwl         E_coul         E_bond        E_angle        E_dihed        E_impro        Density         Volume    
  26400107   177.08426     -1693.4537     -1202.1014      2024.8956      1055.6553      2253.5564     -4965.1253     -1.1851307      0.93828598     46842.402    
  26420000   160.36645     -1950.8858     -1185.9695      2015.8917      983.33803      2091.1014     -4994.4389     -1.4850596      0.94014272     46749.89     
  26440000   158.0326      -1973.7815     -1228.3985      2022.7853      980.1604       2120.2638     -5008.1711     -1.1034318      0.94010074     46751.978    
  26460000   157.95534     -2007.1431     -1243.9518      2034.8609      975.69067      2080.6691     -4993.3697     -1.660216       0.94817611     46353.803    
  26480000   162.64192     -2001.8447     -1220.3639      2025.7978      927.24088      2163.4925     -5035.5816     -3.0280065      0.94231343     46642.197    
  26500000   164.05646     -1958.5356     -1232.0801      2028.4925      972.80916      2151.6754     -5019.2075     -0.91988553     0.93740395     46886.477    
  26520000   159.87883     -1973.5288     -1244.8579      2037.2025      968.30392      2115.4667     -4988.3988     -1.9859323      0.94542361     46488.757    
  26540000   165.58833     -2060.3748     -1215.4641      2013.1046      913.66219      2120.0578     -5031.7926     -0.62459885     0.94196677     46659.362    
  26560000   160.13179     -2037.5959     -1251.7745      2009.4423      946.98774      2101.6027     -4984.3852     -0.14697306     0.94313355     46601.639    
  26580000   159.08245     -2001.0607     -1202.9189      2013.1568      919.43914      2165.5712     -5035.1488     -1.9793521      0.94332933     46591.967    
  26600000   161.7378      -1997.5533     -1216.5257      2048.7872      919.11946      2151.9224     -5040.4967     -1.1130423      0.94198609     46658.406    
  26620000   159.80235     -2024.5522     -1236.9766      2027.0342      948.23394      2118.8422     -5021.3119     -1.0037652      0.94210948     46652.295    
  26640000   160.13507     -2008.12       -1244.8467      2030.2544      967.72515      2096.8084     -4998.0134     -0.71807877     0.9407447      46719.975    
