LAMMPS (22 Dec 2022)
WARNING: Using I/O redirection is unreliable with parallel runs. Better to use the -in switch to read input files. (../lammps.cpp:531)
Reading data file ...
  orthogonal box = (0 0 0) to (48.338369 48.338369 48.338369)
  1 by 2 by 3 MPI processor grid
  reading atoms ...
  5024 atoms
  scanning bonds ...
  5 = max bonds/atom
  scanning angles ...
  18 = max angles/atom
  scanning dihedrals ...
  31 = max dihedrals/atom
  scanning impropers ...
  16 = max impropers/atom
  reading bonds ...
  5383 bonds
  reading angles ...
  11088 angles
  reading dihedrals ...
  17931 dihedrals
  reading impropers ...
  7128 impropers
Finding 1-2 1-3 1-4 neighbors ...
  special bond factors lj:    0        0        0       
  special bond factors coul:  0        0        0       
     4 = max # of 1-2 neighbors
     9 = max # of 1-3 neighbors
    24 = max # of 1-4 neighbors
    36 = max # of special neighbors
  special bonds CPU = 0.001 seconds
  read_data CPU = 0.107 seconds
Generated 28 of 28 mixed pair_coeff terms from sixthpower/geometric mixing rule
Neighbor list info ...
  update: every = 1 steps, delay = 0 steps, check = yes
  max neighbors/atom: 2000, page size: 100000
  master list distance cutoff = 12
  ghost atom cutoff = 12
  binsize = 6, bins = 9 9 9
  1 neighbor lists, perpetual/occasional/extra = 1 0 0
  (1) pair lj/class2/coul/cut, perpetual
      attributes: half, newton on
      pair build: half/bin/newton
      stencil: half/bin/3d
      bin: standard
Setting up cg style minimization ...
  Unit style    : real
  Current step  : 0
Per MPI rank memory allocation (min/avg/max) = 29.71 | 30.16 | 30.72 Mbytes
   Step          Temp          E_pair         E_mol          TotEng         Press     
         0   0             -351.47325      20234.43       19882.957     -1658.4593    
        67   0             -639.80484      14742.796      14102.991      2743.539     
Loop time of 4.71458 on 6 procs for 67 steps with 5024 atoms

99.3% CPU use with 6 MPI tasks x no OpenMP threads

Minimization stats:
  Stopping criterion = energy tolerance
  Energy initial, next-to-last, final = 
       19882.956870112   14103.0261927394   14102.9914081733
  Force two-norm initial, final = 9853.4102 1142.9975
  Force max component initial, final = 4788.0084 859.73955
  Final line search alpha, max atom move = 1.5560979e-08 1.3378389e-05
  Iterations, force evaluations = 67 466

MPI task timing breakdown:
Section |  min time  |  avg time  |  max time  |%varavg| %total
---------------------------------------------------------------
Pair    | 0.70018    | 1.1637     | 1.9652     |  37.8 | 24.68
Bond    | 0.88629    | 1.5713     | 2.5579     |  41.7 | 33.33
Neigh   | 0          | 0          | 0          |   0.0 |  0.00
Comm    | 0.14903    | 1.9363     | 2.8337     |  65.2 | 41.07
Output  | 0          | 0          | 0          |   0.0 |  0.00
Modify  | 0          | 0          | 0          |   0.0 |  0.00
Other   |            | 0.04329    |            |       |  0.92

Nlocal:        837.333 ave        1217 max         612 min
Histogram: 1 1 1 1 1 0 0 0 0 1
Nghost:        5682.33 ave        5836 max        5434 min
Histogram: 1 0 0 0 1 1 0 0 2 1
Neighs:         154752 ave      254049 max       90404 min
Histogram: 1 0 2 1 0 1 0 0 0 1

Total # of neighbors = 928514
Ave neighs/atom = 184.81568
Ave special neighs/atom = 12.482086
Neighbor list builds = 0
Dangerous builds = 0
Generated 28 of 28 mixed pair_coeff terms from sixthpower/geometric mixing rule
Setting up Verlet run ...
  Unit style    : real
  Current step  : 67
  Time step     : 1
Per MPI rank memory allocation (min/avg/max) = 28.58 | 29.03 | 29.59 Mbytes
   Step          Temp          PotEng         E_vdwl         E_coul         E_bond        E_angle        E_dihed        E_impro        Density         Volume    
        67   0              14102.991     -334.14459     -305.66026      537.80426      20351.259     -6091.5446     -54.722114      0.44999999     112947.33    
       100   140.54353      14469.333     -449.71802     -372.90777      1035.2515      20375.876     -6052.2914     -66.877389      0.44999999     112947.33    
       200   281.73373      15117.152     -918.50405     -382.11445      1713.2914      20719.731     -5936.986      -78.265443      0.44999999     112947.33    
       300   299.12281      15181.177     -1043.2214     -420.02828      1970.2255      20745.097     -5989.3432     -81.552547      0.44999999     112947.33    
       400   303.26253      15102.058     -1160.4546     -393.90553      2069.5148      20848.906     -6175.892      -86.110762      0.44999999     112947.33    
       500   310.58289      14911.266     -1165.9272     -466.89422      2065.9443      20842.067     -6269.9085     -94.016384      0.44999999     112947.33    
       600   305.65983      14767.299     -1144.9811     -542.03692      2046.715       20819.315     -6326.1072     -85.606301      0.44999999     112947.33    
       700   303.12827      14707.648     -1162.7986     -492.97151      2059.3082      20695.25      -6299.0162     -92.124614      0.44999999     112947.33    
       800   301.54244      14715.082     -1211.4767     -469.70391      2082.3525      20791.576     -6393.4735     -84.191783      0.44999999     112947.33    
       900   301.56577      14637.386     -1200.0476     -462.70802      2028.7205      20707.03      -6357.7475     -77.861956      0.44999999     112947.33    
      1000   303.35293      14645.674     -1204.6399     -495.05131      2030.1844      20760.298     -6358.0997     -87.017838      0.44999999     112947.33    
      1100   304.98622      14527.937     -1227.342      -533.33539      2008.7921      20753.511     -6386.6076     -87.080982      0.44999999     112947.33    
      1200   302.89537      14348.48      -1229.2732     -465.80711      1938.2779      20534.435     -6346.6775     -82.474758      0.44999999     112947.33    
      1300   307.68886      14268.448     -1240.5882     -491.79148      1965.4239      20497.804     -6376.6425     -85.758         0.44999999     112947.33    
      1400   304.10916      14344.939     -1241.0144     -492.98234      2005.5086      20462.337     -6299.2122     -89.697542      0.44999999     112947.33    
      1500   309.28082      14223.322     -1245.3503     -482.51232      1943.4848      20484.118     -6388.7986     -87.619048      0.44999999     112947.33    
      1600   303.92442      14219.764     -1233.8786     -441.15972      1978.1942      20483.986     -6479.3587     -88.019358      0.44999999     112947.33    
      1700   309.26496      14247.02      -1273.4013     -481.33257      1980.6593      20547.99      -6440.2138     -86.681891      0.44999999     112947.33    
      1800   306.71291      14181.057     -1260.6029     -523.61437      1998.5487      20408.853     -6354.7653     -87.362572      0.44999999     112947.33    
      1900   301.77198      14171.983     -1265.2307     -480.90968      1937.8459      20487.122     -6421.4181     -85.427246      0.44999999     112947.33    
      2000   299.60113      14151.875     -1276.9248     -476.47021      1984.6114      20474.809     -6469.2456     -84.904113      0.44999999     112947.33    
      2100   308.43982      14165.334     -1294.5273     -589.37035      2026.9438      20570.175     -6465.2134     -82.67413       0.44999999     112947.33    
      2200   302.18047      14162.854     -1284.2388     -476.51089      2045.4505      20420.62      -6451.6645     -90.802504      0.44999999     112947.33    
      2300   301.07143      14079.381     -1289.8581     -516.49688      1952.7403      20507.03      -6491.4582     -82.57593       0.44999999     112947.33    
      2400   295.83351      14219.152     -1265.4994     -450.43406      2013.0117      20472.202     -6472.5739     -77.55437       0.44999999     112947.33    
      2500   304.98249      14117.119     -1245.337      -595.30708      2015.6076      20505.413     -6473.728      -89.530126      0.44999999     112947.33    
      2600   308.469        14052.538     -1253.3601     -489.21999      1990.7802      20472.698     -6579.5536     -88.806474      0.44999999     112947.33    
      2700   315.03413      14097.614     -1282.2721     -516.63549      1948.0378      20599.422     -6557.9744     -92.963368      0.44999999     112947.33    
      2800   311.64028      14128.089     -1274.4323     -492.89467      1945.9654      20494.422     -6451.4623     -93.509295      0.44999999     112947.33    
      2900   303.13295      13977.188     -1275.4778     -559.77307      1951.3538      20555.408     -6607.0517     -87.271613      0.44999999     112947.33    
      3000   292.95525      14023.59      -1283.5383     -575.30206      2038.5632      20458.507     -6520.1689     -94.471115      0.44999999     112947.33    
      3100   295.79415      13953.1       -1335.861      -556.51788      1905.8112      20571.98      -6542.3164     -89.995954      0.44999999     112947.33    
      3200   301.92247      13908.159     -1268.8103     -613.02776      2005.4198      20370.965     -6486.8325     -99.555213      0.44999999     112947.33    
      3300   303.07073      13951.047     -1314.5991     -642.01466      2034.3085      20454.1       -6480.9337     -99.814039      0.44999999     112947.33    
      3400   302.64761      13993.474     -1346.9299     -561.85279      2010.5977      20549.868     -6564.5457     -93.663855      0.44999999     112947.33    
      3500   300.56411      13799.402     -1311.2412     -680.72166      1943.3236      20426.631     -6491.0589     -87.531269      0.44999999     112947.33    
      3600   303.24021      13992.816     -1306.838      -537.76159      1959.2148      20506.812     -6532.2886     -96.322579      0.44999999     112947.33    
      3700   302.57479      14063.093     -1331.7099     -556.85903      2039.3964      20548.918     -6549.7507     -86.901806      0.44999999     112947.33    
      3800   311.47506      14090.383     -1333.527      -492.19121      2039.6303      20554.42      -6587.385      -90.563949      0.44999999     112947.33    
      3900   316.81403      14019.075     -1266.3333     -556.80403      1993.8941      20440.575     -6505.4058     -86.850827      0.44999999     112947.33    
      4000   304.34373      13952.549     -1340.5881     -577.73433      2023.761       20492.274     -6557.9342     -87.229465      0.44999999     112947.33    
      4100   301.90887      13846.771     -1346.0948     -591.36812      1984.3707      20423.943     -6526.5889     -97.491341      0.44999999     112947.33    
      4200   302.53285      13876.628     -1321.6215     -535.20752      1936.1349      20477.287     -6597.1209     -82.844486      0.44999999     112947.33    
      4300   300.96148      13890.224     -1324.6691     -643.91925      2007.5829      20557.164     -6620.2824     -85.652614      0.44999999     112947.33    
      4400   308.61387      13945.187     -1307.194      -603.67214      1962.7453      20551.369     -6571.6691     -86.391862      0.44999999     112947.33    
      4500   302.32601      14064.589     -1315.4915     -456.24241      1985.6877      20512.892     -6574.9381     -87.318614      0.44999999     112947.33    
      4600   299.48573      13940.83      -1313.8711     -516.1652       1968.61        20421.44      -6527.7756     -91.408167      0.44999999     112947.33    
      4700   308.31107      14054.478     -1314.4756     -574.93603      2028.7323      20466.878     -6468.32       -83.400151      0.44999999     112947.33    
      4800   304.53582      13982.515     -1335.4718     -542.00152      2050.6177      20473.154     -6581.0124     -82.771927      0.44999999     112947.33    
      4900   308.4723       13865.458     -1315.7353     -567.05492      1997.0978      20352.548     -6507.9257     -93.471903      0.44999999     112947.33    
      5000   299.75323      14027.514     -1334.9731     -484.16384      1961.5058      20519.884     -6545.1817     -89.557575      0.44999999     112947.33    
      5100   303.96492      13792.45      -1339.7561     -590.10914      1992.2068      20366.77      -6550.4362     -86.225938      0.44999999     112947.33    
      5200   304.17862      13816.848     -1330.2007     -586.85014      1971.1659      20393.565     -6552.9635     -77.868759      0.44999999     112947.33    
      5300   302.01913      13704.017     -1326.7173     -654.99605      1998.4652      20396.271     -6619.3099     -89.695671      0.44999999     112947.33    
      5400   297.4895       13751.576     -1338.822      -645.88278      1953.0882      20518.422     -6645.9549     -89.273967      0.44999999     112947.33    
      5500   299.76484      13929.066     -1340.2392     -556.44899      2052.3182      20526.655     -6655.7794     -97.439727      0.44999999     112947.33    
      5600   298.83133      13857.825     -1357.1528     -532.91841      2009.9129      20517.781     -6695.3369     -84.460477      0.44999999     112947.33    
      5700   306.34171      13714.118     -1336.1177     -654.92702      1954.0939      20518.596     -6672.3565     -95.170761      0.44999999     112947.33    
      5800   304.32553      13904.805     -1309.8862     -545.38793      2001.3819      20452.22      -6602.5512     -90.972175      0.44999999     112947.33    
      5900   303.20488      13726.243     -1334.886      -652.47233      1980.8684      20386.115     -6555.5661     -97.815557      0.44999999     112947.33    
      6000   308.72572      14008.776     -1344.8442     -570.05123      2087.938       20434.544     -6508.7906     -90.019287      0.44999999     112947.33    
      6100   303.61785      13821.815     -1358.1004     -598.86398      2006.2526      20441.698     -6574.2425     -94.928212      0.44999999     112947.33    
      6200   297.97127      13708.547     -1360.6747     -710.78093      1994.3563      20375.179     -6499.3725     -90.159636      0.44999999     112947.33    
      6300   302.29055      13708.786     -1344.7253     -641.90917      1988.1777      20387.912     -6595.0257     -85.643192      0.44999999     112947.33    
      6400   306.76496      13721.803     -1362.2361     -657.01436      1982.7315      20375.634     -6534.3665     -82.944984      0.44999999     112947.33    
      6500   299.5656       13741.623     -1348.9621     -639.90516      1988.1616      20464.402     -6623.4596     -98.613965      0.44999999     112947.33    
      6600   299.99316      13748.783     -1353.8583     -617.29259      1948.2953      20449.465     -6590.6966     -87.129503      0.44999999     112947.33    
      6700   300.94332      13790.09      -1335.4134     -667.41592      1990.5546      20449.267     -6560.3179     -86.584454      0.44999999     112947.33    
      6800   301.34099      13753.488     -1352.7087     -628.27027      1930.9013      20450.995     -6550.5826     -96.846625      0.44999999     112947.33    
      6900   311.9352       13731.536     -1337.7194     -724.54998      1980.8345      20436.034     -6533.8243     -89.238703      0.44999999     112947.33    
      7000   298.1833       13698.017     -1351.1279     -675.97415      2024.8615      20429.487     -6633.5198     -95.70946       0.44999999     112947.33    
      7100   307.60187      13605.184     -1327.8037     -790.31884      2027.6887      20399.88      -6612.5431     -91.719311      0.44999999     112947.33    
      7200   302.85838      13668.399     -1317.303      -655.02127      2024.322       20361.3       -6656.7465     -88.15188       0.44999999     112947.33    
      7300   304.32109      13628.237     -1357.1465     -845.39099      2070.5993      20472.102     -6616.6919     -95.234886      0.44999999     112947.33    
      7400   315.71861      13857.268     -1338.0642     -682.1416       2095.7278      20433.692     -6553.1808     -98.765449      0.44999999     112947.33    
      7500   307.53346      13695.963     -1361.3709     -792.05977      2056.7866      20423.94      -6542.7353     -88.597688      0.44999999     112947.33    
      7600   308.12565      13593.464     -1394.9425     -759.51221      2010.5432      20376.033     -6548.5702     -90.086545      0.44999999     112947.33    
      7700   301.72325      13530.258     -1340.8745     -862.35467      1996.4755      20392.376     -6563.3778     -91.985994      0.44999999     112947.33    
      7800   294.67111      13524.446     -1327.0943     -782.14497      1916.212       20340.213     -6535.1131     -87.626951      0.44999999     112947.33    
      7900   301.82564      13672.17      -1344.1572     -673.2431       1980.1469      20303.47      -6495.9531     -98.093183      0.44999999     112947.33    
      8000   299.6521       13559.011     -1357.2668     -758.89561      1937.9491      20419.618     -6581.2823     -101.11179      0.44999999     112947.33    
      8100   305.76577      13775.094     -1354.5246     -626.61009      1989.8119      20431.381     -6569.9088     -95.055623      0.44999999     112947.33    
      8200   308.467        13818.043     -1376.1206     -611.13375      1998.0738      20478.487     -6574.9805     -96.283044      0.44999999     112947.33    
      8300   308.43641      13712.08      -1364.6378     -717.25841      2003.8195      20513.408     -6634.2723     -88.979484      0.44999999     112947.33    
      8400   302.323        13720.744     -1355.2986     -701.69072      1975.6537      20428.308     -6528.9361     -97.293017      0.44999999     112947.33    
      8500   304.25897      13577.399     -1366.1197     -720.56611      1987.7603      20429.224     -6658.233      -94.666919      0.44999999     112947.33    
      8600   306.31779      13629.761     -1391.792      -679.32634      1933.555       20510.529     -6648.1843     -95.0201        0.44999999     112947.33    
      8700   310.58792      13796.27      -1378.5423     -644.39098      2073.9332      20542.882     -6708.3955     -89.217302      0.44999999     112947.33    
      8800   302.49784      13711.744     -1367.3631     -676.93209      2009.7547      20440.505     -6592.885      -101.33493      0.44999999     112947.33    
      8900   307.71384      13716.674     -1398.6512     -588.52229      1942.0105      20431.409     -6579.3644     -90.207241      0.44999999     112947.33    
      9000   305.55404      13715.432     -1401.54       -605.04781      1959.8922      20400.627     -6546.6138     -91.885367      0.44999999     112947.33    
      9100   308.48268      13657.315     -1368.0788     -708.86759      1944.8204      20484.757     -6599.8091     -95.5064        0.44999999     112947.33    
      9200   308.22069      13704.272     -1408.0258     -641.76905      1976.6717      20503.884     -6632.8607     -93.628188      0.44999999     112947.33    
      9300   305.43645      13667.347     -1367.5389     -657.77291      1968.4246      20398.95      -6573.3586     -101.35711      0.44999999     112947.33    
      9400   299.73626      13645.344     -1411.2694     -724.99154      1992.0521      20460.574     -6577.74       -93.280865      0.44999999     112947.33    
      9500   302.78967      13482.916     -1385.9072     -798.28926      1943.0542      20451.324     -6638.0029     -89.262974      0.44999999     112947.33    
      9600   302.11065      13642.213     -1388.1921     -683.55459      1922.9613      20470.272     -6583.3329     -95.940242      0.44999999     112947.33    
      9700   306.27065      13666.71      -1396.9101     -677.02521      1983.9226      20449.073     -6597.0935     -95.257279      0.44999999     112947.33    
      9800   309.80199      13523.894     -1376.1357     -754.63793      1988.7156      20368.961     -6613.1477     -89.860666      0.44999999     112947.33    
      9900   299.55834      13533.254     -1417.1576     -742.51867      1957.0392      20437.701     -6608.3238     -93.48597       0.44999999     112947.33    
     10000   299.29123      13561.477     -1405.8374     -654.6372       1946.223       20401.052     -6633.6799     -91.643515      0.44999999     112947.33    
     10100   299.37606      13684.065     -1377.0021     -660.03954      2001.3975      20371.151     -6555.1276     -96.31367       0.44999999     112947.33    
     10200   300.38671      13733.992     -1368.7729     -621.69773      2001.113       20473.282     -6658.965      -90.966846      0.44999999     112947.33    
     10300   300.23685      13435.396     -1380.8373     -836.14633      1953.4851      20452.449     -6676.6825     -76.87236       0.44999999     112947.33    
     10400   299.7363       13587.587     -1389.8985     -662.88235      1890.3913      20389.547     -6542.0193     -97.550518      0.44999999     112947.33    
     10500   297.24812      13623.011     -1396.7203     -677.94179      1969.4113      20420.697     -6603.0147     -89.42069       0.44999999     112947.33    
     10600   302.5728       13614.144     -1419.9617     -706.34147      2016.8843      20434.946     -6623.3232     -88.060746      0.44999999     112947.33    
     10700   300.16822      13759.799     -1407.6746     -592.12898      2053.4145      20379.935     -6577.7458     -96.000531      0.44999999     112947.33    
     10800   306.20247      13597.968     -1422.4314     -742.50942      2030.2549      20440.786     -6616.0461     -92.086172      0.44999999     112947.33    
     10900   298.46288      13526.402     -1435.8713     -809.17036      2032.0951      20422.419     -6582.8042     -100.26683      0.44999999     112947.33    
     11000   299.70218      13636.859     -1447.7783     -655.22709      2042.8582      20441.716     -6653.8545     -90.854903      0.44999999     112947.33    
     11100   302.616        13592.92      -1435.0102     -691.84343      1997.3868      20375.339     -6561.1934     -91.758256      0.44999999     112947.33    
     11200   302.87637      13559.923     -1407.3849     -748.58016      1956.9099      20402.447     -6543.3249     -100.14391      0.44999999     112947.33    
     11300   298.81788      13560.166     -1439.5318     -641.40498      1898.1472      20464.43      -6637.2725     -84.20141       0.44999999     112947.33    
     11400   296.83302      13527.728     -1446.1813     -708.26778      1964.8954      20401.36      -6583.1198     -100.95824      0.44999999     112947.33    
     11500   298.22668      13569.667     -1437.2833     -699.20619      1944.7887      20445.18      -6597.0659     -86.745846      0.44999999     112947.33    
     11600   302.29429      13573.023     -1425.5685     -711.03199      1975.6163      20400.183     -6568.7378     -97.437324      0.44999999     112947.33    
     11700   300.13941      13650.29      -1446.2472     -617.89183      1948.2297      20472.952     -6620.4563     -86.295899      0.44999999     112947.33    
     11800   296.62698      13516.286     -1423.9856     -726.41262      1977.6312      20416.042     -6643.084      -83.904932      0.44999999     112947.33    
     11900   300.28396      13595.278     -1448.5626     -628.36431      2033.6508      20375.201     -6641.0067     -95.640399      0.44999999     112947.33    
     12000   298.11899      13573.443     -1446.2175     -677.34227      1976.4122      20440.796     -6622.5348     -97.671101      0.44999999     112947.33    
     12100   299.74473      13616.649     -1446.6002     -629.39849      1969.6031      20393.095     -6586.1316     -83.919113      0.44999999     112947.33    
     12200   302.69966      13684.213     -1416.4587     -599.83102      1979.9673      20410.021     -6596.2797     -93.206255      0.44999999     112947.33    
     12300   310.12842      13805.724     -1433.4594     -477.17982      2027.9344      20389.694     -6611.9305     -89.334542      0.44999999     112947.33    
     12400   296.14202      13608.048     -1431.5553     -668.01088      1964.2261      20447.813     -6613.3251     -91.099296      0.44999999     112947.33    
     12500   298.64691      13619.025     -1429.1268     -584.65389      1940.0783      20383.343     -6596.265      -94.35024       0.44999999     112947.33    
     12600   294.62631      13428.02      -1427.9398     -765.88913      1941.0911      20398.413     -6617.2648     -100.39111      0.44999999     112947.33    
     12700   297.03999      13571.925     -1448.4121     -693.68209      2005.849       20400.081     -6597.1989     -94.712251      0.44999999     112947.33    
     12800   300.4372       13496.107     -1433.359      -658.17668      1932.9344      20405.324     -6663.252      -87.36445       0.44999999     112947.33    
     12900   296.45268      13482.372     -1453.8163     -688.05319      1942.2325      20334.194     -6559.0333     -93.151645      0.44999999     112947.33    
     13000   293.82552      13675.176     -1431.4127     -588.71223      2012.9045      20367.409     -6591.7574     -93.256015      0.44999999     112947.33    
     13100   304.16969      13562.275     -1436.5474     -612.66305      1985.2287      20389.055     -6678.7443     -84.054062      0.44999999     112947.33    
     13200   305.6574       13594.078     -1477.0836     -603.5203       1997.3055      20437.371     -6669.8048     -90.189766      0.44999999     112947.33    
     13300   301.1936       13559.431     -1470.4831     -631.87108      2005.149       20387.595     -6633.8321     -97.127441      0.44999999     112947.33    
     13400   301.95502      13599.594     -1456.2215     -648.86231      1976.9573      20432.639     -6618.3305     -86.587909      0.44999999     112947.33    
     13500   303.31502      13498.136     -1466.9062     -685.0347       1985.3869      20294.184     -6534.456      -95.037538      0.44999999     112947.33    
     13600   303.12739      13350.894     -1451.719      -802.21006      1931.6532      20399.413     -6632.1521     -94.091307      0.44999999     112947.33    
     13700   313.28238      13616.854     -1425.9193     -727.94598      2004.034       20403.997     -6543.2087     -94.102682      0.44999999     112947.33    
     13800   299.74627      13588.996     -1464.6792     -745.06834      2029.7066      20492.894     -6638.9214     -84.936178      0.44999999     112947.33    
     13900   303.35673      13567.279     -1443.3984     -765.95106      2056.3633      20426.714     -6612.2433     -94.206069      0.44999999     112947.33    
     14000   310.55545      13503.372     -1463.2535     -730.41586      1968.0802      20359.78      -6537.6576     -93.161413      0.44999999     112947.33    
     14100   303.48718      13694.794     -1454.4027     -606.68848      2027.2976      20432.371     -6625.3488     -78.434785      0.44999999     112947.33    
     14200   302.24064      13594.1       -1443.9343     -662.18592      1943.0851      20433.041     -6582.2585     -93.647978      0.44999999     112947.33    
     14300   308.1069       13715.997     -1464.8132     -546.14209      1999.5074      20361.907     -6543.4423     -91.019359      0.44999999     112947.33    
     14400   301.77136      13571.885     -1443.4046     -603.86456      1908.8729      20328.401     -6521.2544     -96.864556      0.44999999     112947.33    
     14500   296.81208      13677.776     -1451.0057     -492.29994      2002.3828      20363.455     -6659.3265     -85.429543      0.44999999     112947.33    
     14600   304.17739      13644.054     -1455.2063     -498.33729      1896.1716      20328.517     -6528.9117     -98.179147      0.44999999     112947.33    
     14700   298.54012      13523.122     -1440.4485     -679.45868      2026.3857      20341.911     -6623.8986     -101.36838      0.44999999     112947.33    
     14800   306.87317      13545.29      -1486.2924     -619.54218      1923.1495      20402.994     -6579.0594     -95.959484      0.44999999     112947.33    
     14900   304.93319      13652.636     -1467.5606     -580.92284      1983.0777      20359.546     -6555.8154     -85.688835      0.44999999     112947.33    
     15000   301.72524      13611.831     -1474.6952     -664.70524      2015.9321      20360.904     -6535.9581     -89.646598      0.44999999     112947.33    
     15100   300.18002      13528.793     -1489.3583     -718.96594      1967.8929      20437.803     -6571.7912     -96.787375      0.44999999     112947.33    
     15200   296.55118      13561.36      -1460.7335     -710.55884      2002.5383      20431.51      -6606.4563     -94.939942      0.44999999     112947.33    
     15300   300.28803      13534.861     -1455.316      -627.73351      1852.5469      20472.346     -6613.5916     -93.390774      0.44999999     112947.33    
     15400   297.20867      13591.299     -1444.8        -593.01615      1923.4614      20316.25      -6512.3668     -98.230132      0.44999999     112947.33    
     15500   303.62078      13619.146     -1477.2474     -618.82123      1987.6484      20469.088     -6641.8782     -99.643538      0.44999999     112947.33    
     15600   295.11806      13568.291     -1460.3645     -687.43937      1966.209       20496.418     -6650.6105     -95.921743      0.44999999     112947.33    
     15700   301.95773      13534.171     -1448.0678     -716.8847       1989.9481      20339.217     -6535.6741     -94.366917      0.44999999     112947.33    
     15800   303.2923       13447.414     -1472.2617     -830.06215      2007.5302      20444.816     -6614.5198     -88.088819      0.44999999     112947.33    
     15900   301.02111      13363.871     -1461.2455     -766.35745      1960.4625      20379.667     -6655.0068     -93.64833       0.44999999     112947.33    
     16000   296.81411      13347.8       -1478.949      -696.12423      1884.2723      20378.949     -6644.3885     -95.958861      0.44999999     112947.33    
     16100   294.32938      13573.937     -1499.2212     -604.36243      2009.8584      20398.871     -6638.2726     -92.936541      0.44999999     112947.33    
     16200   298.77814      13530.403     -1470.7053     -667.43508      1995.2843      20440.013     -6672.6094     -94.144219      0.44999999     112947.33    
     16300   298.80628      13577.736     -1492.3924     -604.0262       1988.8132      20404.655     -6630.0761     -89.23705       0.44999999     112947.33    
     16400   289.41767      13612.338     -1468.8157     -568.67567      1955.373       20390.792     -6601.556      -94.779383      0.44999999     112947.33    
     16500   301.18628      13412.278     -1508.5993     -678.26271      1957.2014      20332.244     -6595.8888     -94.416699      0.44999999     112947.33    
     16600   300.76937      13404.648     -1477.8718     -697.64676      1920.2123      20356.304     -6596.5055     -99.844075      0.44999999     112947.33    
     16700   298.11666      13608.375     -1496.0785     -565.09248      1978.4303      20390.425     -6617.9722     -81.337581      0.44999999     112947.33    
     16800   303.01458      13513.515     -1496.321      -605.18897      1927.3112      20475.73      -6691.6976     -96.31784       0.44999999     112947.33    
     16900   299.83318      13506.253     -1490.0151     -654.05653      1947.9458      20505.363     -6714.1419     -88.842537      0.44999999     112947.33    
     17000   297.11184      13590.43      -1513.0099     -569.87175      2000.4382      20343.243     -6584.8798     -85.489439      0.44999999     112947.33    
     17100   297.42786      13544.921     -1499.2783     -538.21668      1940.4009      20380.387     -6641.337      -97.034225      0.44999999     112947.33    
     17200   300.7238       13600.492     -1524.6309     -570.55658      2006.7864      20463.05      -6674.7        -99.457678      0.44999999     112947.33    
     17300   305.54459      13707.656     -1496.2416     -574.38942      1987.7421      20509.467     -6626.8489     -92.073601      0.44999999     112947.33    
     17400   295.08375      13440.824     -1521.8011     -714.48997      1952.9156      20411.89      -6599.6574     -88.032701      0.44999999     112947.33    
     17500   300.84408      13559.647     -1505.8123     -609.32228      1971.3493      20414.303     -6620.8172     -90.054269      0.44999999     112947.33    
     17600   302.95799      13447.12      -1514.1962     -637.63179      1942.7008      20283.26      -6541.5899     -85.423376      0.44999999     112947.33    
     17700   294.5334       13467.276     -1487.4553     -658.17917      2039.7667      20252.558     -6588.7372     -90.677164      0.44999999     112947.33    
     17800   298.53576      13618.196     -1493.5598     -623.39556      2017.1802      20427.973     -6614.8058     -95.196027      0.44999999     112947.33    
     17900   295.01043      13586.081     -1502.4255     -551.7342       2008.5547      20273.617     -6553.1478     -88.78309       0.44999999     112947.33    
     18000   301.16731      13656.04      -1522.6143     -500.42607      1964.4154      20421.026     -6614.7228     -91.638236      0.44999999     112947.33    
     18100   304.87418      13737.018     -1501.8942     -459.38647      2062.569       20376.043     -6640.395      -99.918153      0.44999999     112947.33    
     18200   300.57252      13553.44      -1501.8563     -567.08574      1981.9181      20275.286     -6541.35       -93.471747      0.44999999     112947.33    
     18300   298.14322      13567.38      -1526.0899     -576.82871      1964.9957      20409.108     -6615.4514     -88.353198      0.44999999     112947.33    
     18400   296.36714      13671.714     -1492.4716     -500.64005      1959.1008      20399.748     -6606.3873     -87.635388      0.44999999     112947.33    
     18500   295.43183      13689.974     -1542.8755     -468.22749      1936.2968      20499.163     -6642.9087     -91.474707      0.44999999     112947.33    
     18600   306.38294      13562.217     -1560.8746     -555.28373      1951.1949      20355.437     -6537.9564     -90.300817      0.44999999     112947.33    
     18700   300.01174      13719.77      -1513.3672     -457.16367      2087.1215      20286.31      -6587.8593     -95.271306      0.44999999     112947.33    
     18800   295.32281      13634.603     -1514.8743     -547.15601      1998.8504      20390.276     -6603.4803     -89.012945      0.44999999     112947.33    
     18900   302.19788      13573.022     -1519.5425     -597.16901      2008.2703      20385.035     -6606.1845     -97.386949      0.44999999     112947.33    
     19000   303.54105      13490.23      -1525.1443     -520.03906      1916.893       20300.588     -6594.5174     -87.550219      0.44999999     112947.33    
     19100   303.67545      13506.094     -1519.0583     -646.25011      1985.9284      20429.312     -6648.251      -95.586291      0.44999999     112947.33    
     19200   296.95638      13506.325     -1515.4635     -638.49261      2033.4938      20342.752     -6616.1873     -99.777519      0.44999999     112947.33    
     19300   302.9363       13450.961     -1512.789      -642.27289      1970.1837      20327.118     -6597.4661     -93.813307      0.44999999     112947.33    
     19400   300.40475      13355.849     -1523.8261     -701.97053      1939.3425      20316.915     -6577.0593     -97.552006      0.44999999     112947.33    
     19500   296.20044      13511.818     -1506.145      -613.99741      1973.9673      20313.761     -6562.5749     -93.193293      0.44999999     112947.33    
     19600   302.95415      13434.896     -1532.2077     -662.5061       1892.6016      20392.916     -6561.7479     -94.160738      0.44999999     112947.33    
     19700   306.48443      13473.18      -1493.4931     -679.98621      1971.7312      20378.711     -6614.1745     -89.607827      0.44999999     112947.33    
     19800   313.80404      13514.173     -1517.1069     -640.56918      1941.9886      20476.849     -6657.7008     -89.287822      0.44999999     112947.33    
     19900   302.2862       13482.889     -1517.1656     -551.2673       1929.6175      20315.096     -6596.4365     -96.955419      0.44999999     112947.33    
     20000   306.10617      13364.443     -1524.5466     -670.97262      1969.4978      20308.394     -6626.5446     -91.384788      0.44999999     112947.33    
     20067   301.37463      13551.88      -1541.1347     -583.74276      2001.4858      20458.45      -6700.2188     -82.959918      0.44999999     112947.33    
Loop time of 169.709 on 6 procs for 20000 steps with 5024 atoms

Performance: 10.182 ns/day, 2.357 hours/ns, 117.849 timesteps/s, 592.072 katom-step/s
99.1% CPU use with 6 MPI tasks x no OpenMP threads

MPI task timing breakdown:
Section |  min time  |  avg time  |  max time  |%varavg| %total
---------------------------------------------------------------
Pair    | 22.929     | 37.38      | 62.373     | 207.4 | 22.03
Bond    | 35.316     | 53.47      | 89.659     | 249.0 | 31.51
Neigh   | 4.1365     | 4.1417     | 4.1465     |   0.2 |  2.44
Comm    | 8.9433     | 70.477     | 102.5      | 362.8 | 41.53
Output  | 0.074917   | 0.085051   | 0.10547    |   3.5 |  0.05
Modify  | 0.70193    | 0.89091    | 1.3056     |  21.3 |  0.52
Other   |            | 3.264      |            |       |  1.92

Nlocal:        837.333 ave        1287 max         619 min
Histogram: 2 0 2 0 1 0 0 0 0 1
Nghost:        5578.67 ave        5737 max        5360 min
Histogram: 1 0 0 0 2 0 0 1 1 1
Neighs:         165874 ave      281990 max       95013 min
Histogram: 1 1 1 1 0 1 0 0 0 1

Total # of neighbors = 995243
Ave neighs/atom = 198.09773
Ave special neighs/atom = 12.482086
Neighbor list builds = 628
Dangerous builds = 0
Generated 28 of 28 mixed pair_coeff terms from sixthpower/geometric mixing rule
Setting up Verlet run ...
  Unit style    : real
  Current step  : 20067
  Time step     : 1
Per MPI rank memory allocation (min/avg/max) = 28.96 | 29.24 | 30.05 Mbytes
   Step          Temp          PotEng         E_vdwl         E_coul         E_bond        E_angle        E_dihed        E_impro        Density         Volume    
     20067   301.37463      13551.88      -1541.1347     -583.74276      2001.4858      20458.45      -6700.2188     -82.959918      0.44999999     112947.33    
     20100   302.81992      13560.69      -1545.7994     -554.71516      1971.4581      20423.786     -6648.0661     -85.973086      0.45010821     112920.17    
     20200   302.48993      13415.258     -1540.0188     -618.11487      1956.2319      20364.935     -6660.3482     -87.427277      0.45106946     112679.54    
     20300   295.82209      13478.098     -1562.5005     -616.18455      1921.3433      20442.515     -6618.3889     -88.686046      0.45294543     112212.85    
     20400   324.30985      13804.873     -1525.3213     -658.63631      2153.5279      20577.824     -6647.1936     -95.328157      0.45664562     111303.59    
     20500   320.44515      13405.533     -1571.282      -802.88905      2046.8572      20311.614     -6495.105      -83.661929      0.4607001      110324.04    
     20600   307.90473      13565.225     -1588.1273     -563.81094      1985.9149      20384.755     -6564.6036     -88.903407      0.46495983     109313.31    
     20700   301.23348      13370.001     -1604.2141     -628.41278      1978.4147      20379.611     -6652.3127     -103.08523      0.4686259      108458.15    
     20800   292.83881      13359.251     -1619.6092     -616.13454      1985.9728      20249.475     -6556.8852     -83.56816       0.472289       107616.94    
     20900   296.51633      13257.526     -1605.7044     -651.24959      1978.9672      20227.061     -6598.0142     -93.534193      0.47610746     106753.84    
     21000   305.27283      13263.712     -1628.8714     -549.944        1945.9642      20209.986     -6625.1033     -88.319966      0.47962196     105971.58    
     21100   303.39989      13251.084     -1629.9888     -674.78945      1878.8483      20333.663     -6558.4104     -98.238951      0.48301642     105226.85    
     21200   296.60872      13401.3       -1677.3525     -613.60108      1996.6522      20317.912     -6532.2493     -90.06198       0.48659705     104452.54    
     21300   301.7146       13375.548     -1685.6467     -512.56798      1922.1924      20274.085     -6532.0598     -90.45492       0.48973222     103783.85    
     21400   292.78856      13312.809     -1668.6931     -617.77318      2009.7403      20339.381     -6652.8765     -96.969499      0.49243507     103214.21    
     21500   293.24326      13316.138     -1708.2429     -565.97271      1922.9366      20389.744     -6631.4469     -90.879615      0.4948249      102715.72    
     21600   307.05353      13034.305     -1698.4582     -673.13297      1869.3268      20256.101     -6633.7376     -85.793635      0.49798043     102064.85    
     21700   300.81732      13279.724     -1697.0101     -610.53638      1979.5401      20300.504     -6596.8783     -95.895168      0.50026213     101599.33    
     21800   306.09565      13233.937     -1683.764      -652.99845      1930.1294      20335.342     -6605.7465     -89.024969      0.50171847     101304.42    
     21900   304.61854      13134.843     -1690.683      -643.93396      1850.4936      20286.036     -6563.754      -103.31538      0.50320734     101004.68    
     22000   299.16662      13219.331     -1714.4506     -553.0745       1892.312       20268.405     -6574.1821     -99.67846       0.50486752     100672.54    
     22100   297.78945      13263.93      -1695.691      -572.85696      1958.8884      20297.1       -6636.2971     -87.213934      0.50690536     100267.82    
     22200   304.74706      13320.776     -1692.2283     -481.82776      1974.0659      20255.82      -6644.0594     -90.993828      0.50985435     99687.877    
     22300   304.79223      13266.282     -1718.341      -530.20351      1962.2176      20246.653     -6604.1404     -89.904113      0.51389106     98904.81     
     22400   295.88592      13349.929     -1702.3282     -645.46233      2026.9288      20423.73      -6664.0162     -88.922518      0.51839436     98045.622    
     22500   301.57385      13219.76      -1716.1013     -600.86537      1951.4845      20262.099     -6591.182      -85.674333      0.5216096      97441.262    
     22600   297.26253      13141.622     -1739.0877     -652.88073      1959.864       20289.974     -6622.2223     -94.024963      0.52471497     96864.584    
     22700   292.00355      13221.016     -1750.9287     -603.30605      1963.4937      20380.798     -6689.8884     -79.152236      0.5281799      96229.14     
     22800   299.47787      13300.28      -1759.391      -515.94563      1979.0372      20276.27      -6588.9933     -90.696503      0.53168702     95594.392    
     22900   294.38458      13235.094     -1777.689      -567.30534      1949.195       20392.325     -6669.1428     -92.288773      0.53541936     94928.015    
     23000   299.0264       13169.354     -1782.2566     -496.70573      1885.4985      20303.656     -6637.3821     -103.456        0.5389737      94301.998    
     23100   300.84465      12957.61      -1736.296      -732.25162      1936.6497      20160.435     -6580.6266     -90.300269      0.54213657     93751.832    
     23200   300.84885      13279.047     -1768.2454     -561.76295      2000.3965      20270.882     -6571.0959     -91.127307      0.54463785     93321.272    
     23300   303.71593      13112.642     -1750.1796     -670.11609      1947.0626      20252.899     -6576.8702     -90.153568      0.54760048     92816.386    
     23400   297.33581      13276.421     -1767.218      -510.64201      1963.2343      20337.643     -6651.7996     -94.796665      0.54990904     92426.735    
     23500   301.88598      13145.818     -1760.2567     -529.37876      1927.9313      20184.476     -6587.2834     -89.671173      0.55216725     92048.735    
     23600   293.84176      13129.869     -1798.9508     -647.2828       2009.2717      20265.403     -6599.9346     -98.6376        0.55451102     91659.67     
     23700   298.30756      13051.527     -1777.7976     -731.17466      1920.1765      20411.139     -6677.7143     -93.101405      0.5579224      91099.224    
     23800   301.12529      13190.671     -1770.1262     -655.60308      1918.1468      20411.836     -6611.7881     -101.79411      0.55989229     90778.705    
     23900   308.39204      13127.759     -1786.3947     -601.46582      1844.5613      20413.207     -6641.9909     -100.15766      0.56115904     90573.783    
     24000   303.0508       13141.098     -1759.3997     -575.43662      1889.6262      20354.727     -6669.0626     -99.356087      0.56271927     90322.654    
     24100   292.68091      13017.784     -1771.677      -749.70285      1932.8142      20280.941     -6582.2294     -92.361672      0.5637261      90161.334    
     24200   295.29743      13057.239     -1788.6515     -703.69668      1859.8382      20372.072     -6586.013      -96.309411      0.564504       90037.09     
     24300   297.20156      13144.259     -1752.2455     -647.77966      1962.5727      20264.138     -6583.2394     -99.186708      0.56612795     89778.816    
     24400   302.30901      12900.371     -1794.0679     -798.0524       1919.9035      20254.149     -6586.3828     -95.177577      0.56850157     89403.97     
     24500   301.57887      12872.325     -1789.9673     -700.50379      1840.6597      20155.643     -6545.7533     -87.752643      0.5716913      88905.144    
     24600   297.66659      12904.669     -1809.4075     -672.24915      1913.2511      20185.058     -6614.9315     -97.051744      0.57460272     88454.676    
     24700   296.75374      13090.968     -1818.9984     -564.995        1873.3378      20319.574     -6615.3785     -102.57264      0.57766835     87985.256    
     24800   306.31953      13008.561     -1802.2569     -580.46045      1844.2468      20233.315     -6593.5479     -92.735582      0.580659       87532.092    
     24900   303.71794      13031.107     -1795.795      -680.74011      1931.0952      20340.945     -6654.4121     -109.98611      0.58346579     87111.015    
     25000   296.92318      13096.706     -1817.5878     -659.99445      1974.677       20322.172     -6629.5553     -93.004697      0.58614055     86713.498    
     25100   294.20428      13172.935     -1814.5757     -558.92863      1908.8481      20261.672     -6528.1042     -95.976237      0.58846094     86371.573    
     25200   299.94817      13042.986     -1816.0948     -589.20047      1870.8569      20345.831     -6678.0683     -90.338547      0.58999284     86147.312    
     25300   304.65324      12913.272     -1829.1697     -686.76114      1912.5862      20255.569     -6643.772      -95.180564      0.59263245     85763.608    
     25400   299.5845       12966.506     -1825.6655     -704.34388      1858.9778      20298.037     -6557.6919     -102.80828      0.59534506     85372.838    
     25500   299.40862      12973.53      -1820.0813     -654.10668      1957.599       20173.295     -6582.5176     -100.65833      0.59828781     84952.921    
     25600   295.20902      12991.231     -1806.9924     -628.50123      1951.2422      20187.222     -6611.3291     -100.40982      0.60103813     84564.181    
     25700   300.18776      12922.511     -1799.6738     -607.37158      1879.3834      20145.791     -6598.2369     -97.381003      0.60328304     84249.504    
     25800   301.31741      12952.452     -1845.1054     -674.94708      1921.3724      20223.206     -6574.6191     -97.45458       0.60444926     84086.954    
     25900   301.40763      12994.492     -1833.5362     -687.8242       1903.8768      20254.928     -6555.4977     -87.454505      0.60681152     83759.612    
     26000   302.12876      12950.553     -1836.7003     -652.30919      1939.0941      20214.097     -6625.7213     -87.90738       0.610145       83301.998    
     26100   302.75034      12880.993     -1854.3517     -668.76323      1881.7016      20204.543     -6590.1733     -91.962863      0.61430881     82737.373    
     26200   301.30414      12958.727     -1859.7268     -623.19523      1885.4724      20291.18      -6640.5586     -94.444124      0.61890296     82123.209    
     26300   298.63755      13062.758     -1874.7551     -546.76391      1947.3929      20176.001     -6546.8989     -92.217874      0.62313564     81565.383    
     26400   296.46405      12856.658     -1883.4888     -729.9131       1893.7262      20216.175     -6540.5173     -99.323326      0.62658514     81116.346    
     26500   299.50115      12848.13      -1873.8244     -672.71631      1883.1205      20178.672     -6578.3339     -88.788312      0.62937672     80756.557    
     26600   302.5572       12899.727     -1875.6222     -628.08001      1865.4101      20153.582     -6513.2831     -102.2793       0.6324204      80367.896    
     26700   301.54453      12975.705     -1861.9477     -638.92006      1874.2917      20263.26      -6563.6436     -97.334812      0.63623759     79885.719    
     26800   295.69826      13042.453     -1866.8975     -714.66085      1928.7064      20297.383     -6503.7926     -98.285338      0.64010864     79402.611    
     26900   305.89143      13044.256     -1886.2894     -621.68619      1942.5514      20240.893     -6548.877      -82.335058      0.64298864     79046.96     
     27000   297.4098       13071.566     -1874.0227     -616.26543      1986.1247      20262.441     -6600.8771     -85.834479      0.64478878     78826.275    
     27100   297.1265       12934.779     -1873.8446     -640.94559      1905.7574      20178.362     -6550.9229     -83.627299      0.6467092      78592.198    
     27200   295.37963      12914.957     -1909.7829     -666.69368      1913.4696      20184.894     -6514.2961     -92.633331      0.64835237     78393.016    
     27300   295.87498      12942.236     -1895.8279     -679.11885      1890.9745      20302.282     -6584.4938     -91.580218      0.65050708     78133.35     
     27400   299.69042      12973.033     -1875.2561     -694.57654      1867.059       20376.408     -6614.3232     -86.27775       0.6531308      77819.477    
     27500   306.9989       12851.236     -1901.6217     -745.93185      1928.4409      20193.67      -6531.3789     -91.941809      0.6552581      77566.835    
     27600   302.4759       12870.543     -1904.7019     -730.06435      1943.0762      20219.652     -6568.9199     -88.499076      0.65748253     77304.407    
     27700   303.82106      12798.978     -1921.2276     -740.24074      1912.5877      20211.922     -6566.5861     -97.476988      0.65952024     77065.561    
     27800   299.0291       12837.888     -1910.3526     -737.84766      1921.525       20245.685     -6590.8415     -90.280625      0.66091504     76902.922    
     27900   303.00849      12839.038     -1915.2795     -643.25739      1820.4677      20154.339     -6481.2229     -96.008541      0.6624776      76721.533    
     28000   293.06612      12811.086     -1928.3039     -703.57597      1903.0055      20178.692     -6546.5313     -92.199809      0.66339016     76615.996    
     28100   298.2262       12771.548     -1969.908      -651.2541       1863.6822      20141.103     -6515.2943     -96.781138      0.66428946     76512.275    
     28200   303.63133      12839.796     -1928.6011     -639.38016      1859.9276      20223.366     -6583.7065     -91.809464      0.66530425     76395.57     
     28300   307.12834      12827.581     -1922.5366     -670.36531      1879.07        20289.905     -6658.3018     -90.190136      0.66549192     76374.026    
     28400   302.21685      12976.068     -1898.3437     -553.92722      1945.4232      20143.28      -6568.3261     -92.037621      0.66607847     76306.771    
     28500   300.21116      13008.975     -1940.8734     -471.55233      1862.132       20199.931     -6560.9056     -79.756938      0.66617506     76295.707    
     28600   299.10286      12960.948     -1951.8117     -500.58164      1904.9017      20131.971     -6533.3628     -90.16857       0.66673733     76231.365    
     28700   293.93443      12902.269     -1939.6411     -633.63073      1861.4806      20353.723     -6651.776      -87.886791      0.66775036     76115.717    
     28800   295.92687      12963.035     -1946.84       -643.50681      1912.3085      20351.663     -6614.4908     -96.098675      0.66925736     75944.323    
     28900   301.43723      12984.502     -1935.1601     -624.88162      1904.3226      20350.172     -6620.1947     -89.756508      0.67187814     75648.089    
     29000   306.86445      12612.413     -1930.7222     -868.57863      1900.6216      20206.131     -6606.7245     -88.314383      0.67576709     75212.744    
     29100   298.40974      12788.38      -1920.2463     -721.44508      1877.0099      20168.478     -6530.6852     -84.731337      0.680688       74669.008    
     29200   298.77763      12725.804     -1932.7669     -742.58788      1877.7985      20139.81      -6524.2688     -92.181438      0.68557967     74136.238    
     29300   297.36878      12844.132     -1950.9053     -683.39825      1882.8526      20237.309     -6548.836      -92.889596      0.68827478     73845.939    
     29400   301.06813      12923.808     -1955.2979     -620.13477      1871.8341      20196.644     -6469.246      -99.991952      0.68968647     73694.786    
     29500   308.3357       12821.306     -1980.8392     -608.11565      1904.9657      20129.262     -6529.033      -94.9342        0.69041553     73616.967    
     29600   300.22736      12758.33      -1959.3756     -721.42742      1856.4137      20231.872     -6552.7888     -96.363792      0.69159892     73491.002    
     29700   296.12327      12773.436     -1927.5525     -716.31091      1885.5233      20134.3       -6518.699      -83.824885      0.69347182     73292.52     
     29800   303.46927      12471.716     -1946.8441     -910.42778      1816.6904      20175.403     -6560.1699     -102.93569      0.69606528     73019.441    
     29900   297.0599       12823.456     -2005.9723     -700.44765      1927.9199      20311.959     -6617.02       -92.982498      0.69838548     72776.853    
     30000   302.08664      12756.263     -1966.9459     -768.45547      1886.5813      20283.125     -6585.6422     -92.399284      0.70087479     72518.37     
     30067   297.93763      12985.236     -1946.7246     -632.11383      1965.0164      20251.124     -6562.6726     -89.393682      0.70267361     72332.725    
Loop time of 173.24 on 6 procs for 10000 steps with 5024 atoms

Performance: 4.987 ns/day, 4.812 hours/ns, 57.723 timesteps/s, 290.002 katom-step/s
99.3% CPU use with 6 MPI tasks x no OpenMP threads

MPI task timing breakdown:
Section |  min time  |  avg time  |  max time  |%varavg| %total
---------------------------------------------------------------
Pair    | 16.481     | 25.632     | 39.319     | 145.9 | 14.80
Bond    | 17.02      | 27.539     | 41.412     | 155.8 | 15.90
Neigh   | 9.5934     | 9.9504     | 10.196     |   7.0 |  5.74
Comm    | 31.111     | 59.507     | 82.641     | 219.8 | 34.35
Output  | 0.77611    | 0.78693    | 0.80268    |   1.1 |  0.45
Modify  | 37.16      | 41.203     | 43.428     |  34.0 | 23.78
Other   |            | 8.622      |            |       |  4.98

Nlocal:        837.333 ave        1085 max         697 min
Histogram: 1 1 2 0 1 0 0 0 0 1
Nghost:           7329 ave        7463 max        7181 min
Histogram: 1 0 1 0 1 1 0 0 1 1
Neighs:         227522 ave      315456 max      155357 min
Histogram: 1 0 1 1 0 2 0 0 0 1

Total # of neighbors = 1365132
Ave neighs/atom = 271.72213
Ave special neighs/atom = 12.482086
Neighbor list builds = 874
Dangerous builds = 0
Read molecule template pre:
  1 molecules
  0 fragments
  24 atoms with max type 7
  23 bonds with max type 12
  40 angles with max type 29
  48 dihedrals with max type 43
  24 impropers with max type 29
Read molecule template post:
  1 molecules
  0 fragments
  24 atoms with max type 7
  23 bonds with max type 10
  40 angles with max type 28
  51 dihedrals with max type 46
  24 impropers with max type 25
dynamic group bond_react_MASTER_group defined
dynamic group statted_grp_REACT defined

CITE-CITE-CITE-CITE-CITE-CITE-CITE-CITE-CITE-CITE-CITE-CITE-CITE

Your simulation uses code contributions which should be cited:
- fix bond/react: reacter.org doi:10.1016/j.polymer.2017.09.038, doi:10.1021/acs.macromol.0c02012
The log file lists these citations in BibTeX format.

CITE-CITE-CITE-CITE-CITE-CITE-CITE-CITE-CITE-CITE-CITE-CITE-CITE

Generated 28 of 28 mixed pair_coeff terms from sixthpower/geometric mixing rule
Neighbor list info ...
  update: every = 1 steps, delay = 0 steps, check = yes
  max neighbors/atom: 2000, page size: 100000
  master list distance cutoff = 12
  ghost atom cutoff = 12
  binsize = 6, bins = 7 7 7
  2 neighbor lists, perpetual/occasional/extra = 1 1 0
  (1) pair lj/class2/coul/cut, perpetual
      attributes: half, newton on
      pair build: half/bin/newton
      stencil: half/bin/3d
      bin: standard
  (2) fix bond/react, occasional, copy from (1)
      attributes: half, newton on
      pair build: copy
      stencil: none
      bin: none
Setting up Verlet run ...
  Unit style    : real
  Current step  : 30067
  Time step     : 1
Per MPI rank memory allocation (min/avg/max) = 36.18 | 36.64 | 37.66 Mbytes
   Step          Temp          PotEng         E_vdwl         E_coul         E_bond        E_angle        E_dihed        E_impro        Density         Volume       f_fxrct[1]  
     30067   297.93763      12985.236     -1946.7246     -632.11383      1965.0164      20251.124     -6562.6726     -89.393682      0.70267361     72332.725      0            
     30100   298.48286      124466.25      889.94961     -642.94483      110790.61      20225.605     -6699.7025     -97.267225      0.7026397      72336.216      1            
     30200   305.3322       384449.85      4118.6292     -576.98676      367403.43      20163.159     -6566.5096     -91.863352      0.74526369     68199.079      4            
     30300   317.30778      228706.68      2850.748      -453.81617      212992.16      20073.555     -6674.8917     -81.074776      0.80780254     62919.209      6            
     30400   324.27409      12690.432     -2033.4248     -530.49643      1743.0308      20230.688     -6620.5055     -98.859977      0.84820083     59922.48       6            
     30500   317.65447      12342.585     -2055.5323     -550.07436      1784.647       19938.419     -6670.4862     -104.38754      0.8401326      60497.947      6            
     30600   306.83929      12113.978     -2083.7477     -551.90517      1752.6715      19745.985     -6657.1707     -91.855678      0.83242125     61058.385      6            
     30700   295.12312      361802.91      4856.9451     -612.56952      344897.43      19392.214     -6645.674      -85.444179      0.82655238     61491.925      9            
     30800   300.75312      179516.89     -88.1975       -668.71261      167580.73      19463.813     -6692.9215     -77.827594      0.88425288     57479.369      10           
     30900   306.08553      11518.388     -2075.2851     -761.78909      1624.9727      19396.608     -6569.7422     -96.376279      0.92343644     55040.385      10           
     31000   297.58732      11401.367     -2037.8725     -718.5298       1599.4025      19274.3       -6627.011      -88.921773      0.91590544     55492.953      10           
     31100   291.64625      53717.882     -491.67315     -788.14799      42475.122      19175.309     -6550.8654     -101.86234      0.90591113     56105.169      11           
     31200   297.54021      48064.421      185.33438     -705.99378      36158.451      19050.542     -6535.0222     -88.890066      0.91667704     55446.242      12           
     31300   306.29224      11052.81      -2092.4192     -891.05357      1601.9699      19036.882     -6512.1687     -90.400159      0.92605429     54884.792      12           
     31400   303.20594      11255.09      -2112.1049     -713.21686      1643.6904      19042.78      -6511.6582     -94.400175      0.91838247     55343.279      12           
     31500   300.99859      11211.209     -2090.6533     -683.11593      1606.6551      19028.189     -6570.2163     -79.648885      0.90941684     55888.889      12           
     31600   292.69183      146955.39      682.28953     -573.5363       134652.59      18832.586     -6555.3936     -83.14349       0.9008581      56419.87       13           
     31700   296.95928      11440.348     -2103.3158     -501.95164      1641.6669      19069.32      -6591.1391     -74.233107      0.93878093     54140.743      13           
     31800   300.19967      11215.593     -2110.6346     -538.80571      1626.456       18944.634     -6622.7559     -83.299826      0.93370563     54435.034      13           
     31900   299.91013      605187.49      1309.7972     -561.23079      592465.01      18732.518     -6675.6066     -82.99836       0.9281024      54763.674      14           
     32000   315.80227      531454.08      4498.7553     -365.53877      515012.31      18914.355     -6537.0315     -68.774779      1.0236422      49652.405      17           
     32100   329.52112      36945.087      883.70448     -477.83477      24076.123      19131.508     -6596.1436     -72.26996       1.1066802      45926.815      18           
     32200   326.54587      11122.815     -2005.0488     -487.52886      1564.6023      18714.741     -6573.9205     -90.029695      1.0962281      46364.709      18           
     32300   309.65027      10670.728     -2115.8562     -677.32513      1585.2868      18528.814     -6556.6943     -93.497275      1.0780909      47144.724      18           
     32400   298.1035       122672.56      3108.597      -841.65706      108639.92      18404.131     -6553.0021     -85.429352      1.0618638      47865.177      20           
     32500   296.84616      51631.967      782.88322     -591.52519      39763.276      18255.759     -6506.9507     -71.47432       1.090232       46619.706      21           
     32600   296.05985      9987.4251     -2170.139      -814.46364      1493.2995      18047.502     -6489.5209     -79.252478      1.0923176      46530.694      21           
     32700   296.91874      97125.497      1239.23       -773.13601      85361.844      17968.036     -6596.1216     -74.355832      1.0767398      47203.88       23           
     32800   302.61392      9630.7171     -2220.0409     -856.06447      1483.0882      17757.293     -6451.6425     -81.915979      1.0971017      46327.789      23           
     32900   295.56111      9802.1313     -2186.4811     -837.11895      1539.0888      17882.84      -6521.3934     -74.803556      1.0837958      46896.563      23           
     33000   300.55522      9723.0796     -2227.5017     -936.29746      1560.8095      17885.133     -6487.4595     -71.604619      1.0696273      47517.766      23           
     33100   303.31875      9767.3396     -2270.3643     -812.68155      1577.0132      17937.051     -6588.1366     -75.542228      1.0564611      48109.957      23           
     33200   305.25373      59594.988      3615.4541     -637.43893      45394.947      17748.648     -6450.9717     -75.650736      1.0442604      48672.055      25           
     33300   295.91208      9546.9739     -2261.9141     -691.65612      1522.9645      17492.698     -6437.3303     -77.788407      1.0550776      48173.041      25           
     33400   295.01306      9540.7641     -2285.2415     -680.48572      1538.7298      17450.584     -6407.7267     -75.095814      1.044411       48665.034      25           
     33500   299.27777      9533.6958     -2297.6144     -659.96627      1529.4294      17560.289     -6525.8648     -72.576765      1.0331551      49195.224      25           
     33600   300.1615       9619.5472     -2279.4115     -650.69872      1598.1995      17516.237     -6487.4169     -77.362207      1.023726       49648.341      25           
     33700   298.28915      9636.1096     -2262.1594     -693.79885      1633.7074      17636.066     -6608.675      -69.030811      1.0147938      50085.343      25           
     33800   300.49473      9620.8078     -2250.7236     -726.44684      1635.4154      17568.477     -6527.344      -78.56976       1.006991       50473.438      25           
     33900   299.39666      97386.856      10.970335     -728.97318      87161.681      17517.234     -6516.1095     -57.94701       0.99873264     50890.794      26           
     34000   304.54424      78476.979      27.156513     -702.39875      68157.512      17487.876     -6421.8387     -71.328687      1.0317179      49263.754      27           
     34100   299.3569       168877.69      2119.9455     -545.98513      156692.95      17255.262     -6573.2262     -71.251628      1.0507811      48370.013      29           
     34200   302.79999      9326.5812     -2294.2149     -621.22204      1574.6037      17227.143     -6479.2212     -80.50694       1.0885382      46692.248      29           
     34300   305.56108      9073.362      -2325.5278     -643.57203      1562.5281      16993.711     -6435.0317     -78.745316      1.0792498      47094.101      29           
     34400   297.69435      111960.08      5.9253485     -562.11566      102060.17      16958.171     -6432.755      -69.321848      1.0691915      47537.133      30           
     34500   300.72706      185923.52     -297.68898     -796.04048      176824.11      16899.063     -6627.5191     -78.397945      1.1003336      46191.716      31           
     34600   301.41211      45367.393     -335.68603     -702.01238      35974.636      17135.798     -6631.9665     -73.37605       1.1434503      44449.94       32           
     34700   308.56094      8587.096      -2353.6482     -897.9962       1494.1627      17001.958     -6588.564      -68.816147      1.1409362      44547.886      32           
     34800   296.66505      8604.7521     -2329.604      -848.75919      1551.4773      16852.795     -6546.93       -74.226504      1.1244651      45200.424      32           
     34900   296.56345      8665.3393     -2348.3726     -725.08245      1587.1335      16844.526     -6622.4417     -70.423043      1.108296       45859.857      32           
     35000   298.80512      115352.68     -244.14607     -645.2575       106247.07      16643.923     -6572.1103     -76.803741      1.0941999      46450.652      33           
     35100   302.39473      47877.743      17.526023     -791.72232      38443.94       16868.18      -6595.9366     -64.243788      1.1264782      45119.647      34           
     35200   304.73468      8350.5403     -2323.8951     -903.80488      1557.7113      16694.86      -6597.8002     -76.530486      1.128517       45038.131      34           
     35300   304.1888       8350.3301     -2400.5107     -716.90414      1574.8484      16534.493     -6571.6616     -69.934499      1.1133351      45652.29       34           
     35400   302.23632      8195.6119     -2403.9258     -822.33713      1567.8713      16485.051     -6557.9315     -73.1158        1.0998839      46210.602      34           
     35500   294.28402      31224.131     -521.15517     -824.7564       22766.84       16431.208     -6569.1088     -58.896327      1.0868529      46764.652      35           
     35600   299.93079      8367.9785     -2377.5177     -675.14444      1660.1965      16423.864     -6590.4882     -72.932083      1.0854407      46825.493      35           
     35700   303.03501      8295.3543     -2419.0598     -758.01148      1642.2034      16506.321     -6603.7804     -72.318758      1.0748485      47286.942      35           
     35800   302.3956       8075.9018     -2388.6461     -912.55508      1601.726       16449.724     -6600.5801     -73.766806      1.0638726      47774.798      35           
     35900   299.36249      8081.9339     -2419.681      -855.89246      1629.8059      16442.874     -6654.041      -61.131841      1.0549193      48180.273      35           
     36000   292.90121      8116.8562     -2384.7308     -843.26825      1625.4445      16433.728     -6645.6468     -68.670503      1.046594       48563.528      35           
     36100   302.04131      284508.79      25.298648     -848.10799      275843.89      16229.185     -6676.3403     -65.140595      1.0386093      48936.879      36           
     36200   307.73716      8605.9064     -2396.8629     -725.47657      1660.383       16806.89      -6672.8461     -66.181428      1.101014       46163.17       36           
     36300   312.59786      8189.4213     -2435.0393     -864.11671      1646.9597      16590.083     -6671.824      -76.640972      1.0944502      46440.028      36           
     36400   304.62393      142645.95     -110.97295     -708.25412      133806.25      16288.428     -6556.325      -73.172739      1.0860283      46800.16       37           
     36500   300.77906      8201.2029     -2385.9499     -755.89105      1615.6303      16449.657     -6657.2889     -64.954821      1.1237071      45230.911      37           
     36600   298.75251      7890.8538     -2441.8461     -908.96442      1587.8841      16338.985     -6619.8292     -65.375714      1.1134831      45646.221      37           
     36700   297.37308      299721.29     -469.22495     -989.52102      291751.18      16127.116     -6629.141      -69.117004      1.1030742      46076.952      38           
     36800   308.12737      92072.455      576.29502     -749.45533      82592.345      16438.584     -6720.5748     -64.73895       1.1692745      43468.234      39           
     36900   309.31076      102741.83     -288.86887     -733.70643      94336.528      16205.111     -6705.8271     -71.402879      1.1849642      42892.687      40           
     37000   311.87778      8034.0845     -2325.7176     -549.24654      1569.7423      16110.521     -6701.3778     -69.837119      1.2042405      42206.1        40           
     37100   299.15067      7558.9839     -2349.6051     -915.09978      1601.0274      15937.298     -6656.4711     -58.165331      1.1841087      42923.676      40           
     37200   295.16248      7455.8917     -2406.5684     -888.87549      1569.5575      15741.482     -6496.0444     -63.659915      1.1642073      43657.427      40           
     37300   295.82058      329562.41      52.018588     -705.16818      321125.77      15710.433     -6555.4632     -65.185829      1.1465326      44330.442      41           
     37400   311.59433      8104.2997     -2308.8561     -678.05114      1594.3167      16148.775     -6583.6695     -68.215056      1.2135563      41882.109      41           
     37500   305.85148      7712.9373     -2351.5779     -808.75088      1559.4414      15988.885     -6605.2749     -69.785014      1.1957913      42504.322      41           
     37600   300.8661       7373.4601     -2386.5988     -971.75011      1575.4639      15847.338     -6629.1103     -61.882999      1.1772459      43173.901      41           
     37700   292.66483      83778.917      2822.9213     -781.08723      72667.823      15737.812     -6604.463      -64.089118      1.1597909      43823.672      42           
     37800   297.57494      7441.626      -2418.0573     -786.51139      1565.5456      15765.472     -6626.3431     -58.479632      1.1772057      43175.375      42           
     37900   301.42928      7386.7906     -2420.4727     -803.79407      1514.4009      15672.857     -6518.5759     -57.624848      1.1595007      43834.64       42           
     38000   304.27986      7244.3117     -2438.3792     -897.82809      1599.5855      15667.327     -6622.478      -63.915151      1.1437932      44436.614      42           
     38100   305.79358      231834.5      -202.49125     -636.1576       223870.92      15537.218     -6675.1758     -59.815748      1.1286954      45031.014      43           
     38200   306.03298      7813.9598     -2385.5648     -610.20858      1625.4707      15871.473     -6626.2775     -60.933368      1.1844003      42913.108      43           
     38300   304.43986      7453.6007     -2423.7475     -764.67587      1602.9405      15780.715     -6676.9685     -64.663044      1.1696051      43455.948      43           
     38400   296.33547      7289.588      -2494.0449     -843.45361      1663.5169      15729.126     -6703.7328     -61.823665      1.1542609      44033.632      43           
     38500   298.48813      7179.4413     -2509.7032     -809.38515      1627.9471      15675.001     -6743.9005     -60.517461      1.1404867      44565.447      43           
     38600   297.33854      7199.7895     -2520.7901     -823.9946       1582.7616      15651.671     -6624.1932     -65.665024      1.1275141      45078.192      43           
     38700   298.60361      7400.0539     -2505.0172     -685.02091      1628.3557      15694.971     -6672.5101     -60.72448       1.1152323      45574.628      43           
     38800   299.36977      7360.9506     -2476.1808     -740.37068      1667.2249      15647.19      -6685.5058     -51.407402      1.1039391      46040.852      43           
     38900   300.214        7216.8515     -2459.8129     -885.2584       1679.7305      15587.528     -6641.1714     -64.163822      1.0936388      46474.483      43           
     39000   301.66448      7207.059      -2516.0323     -882.69155      1725.3979      15594.54      -6657.5547     -56.600857      1.0837103      46900.264      43           
     39100   296.45768      7032.0851     -2491.5895     -1031.9462      1692.6732      15509.907     -6594.5457     -52.41399       1.0764902      47214.825      43           
     39200   295.0478       7186.4213     -2508.1295     -902.48462      1655.8699      15620.597     -6624.3444     -55.086563      1.0687299      47557.666      43           
     39300   303.30511      7249.4157     -2454.8418     -830.74197      1717.8161      15532.396     -6650.0675     -65.145612      1.0627656      47824.559      43           
     39400   297.691        7323.2365     -2478.8361     -875.48758      1735.1343      15640.296     -6643.4975     -54.37305       1.0568818      48090.804      43           
     39500   302.74492      7337.755      -2445.3441     -809.23217      1689.9308      15542.471     -6588.6157     -51.454566      1.0512952      48346.359      43           
     39600   306.46883      7203.2778     -2468.8654     -842.00552      1704.0001      15527.311     -6659.58       -57.581955      1.0474167      48525.382      43           
     39700   296.62367      7054.36       -2500.1054     -992.02108      1694.6783      15641.6       -6734.7116     -55.080036      1.0431942      48721.796      43           
     39800   297.05601      7286.9848     -2429.8848     -746.91408      1706.6225      15495.2       -6679.5989     -58.439747      1.0410288      48823.141      43           
     39900   301.8895       7315.1818     -2440.9954     -732.85343      1699.6472      15418.433     -6573.9626     -55.086675      1.0359609      49061.985      43           
     40000   299.77568      7320.1307     -2447.5117     -846.7581       1771.9793      15499.278     -6592.1592     -64.697148      1.0323459      49233.784      43           
     40100   301.3209       7510.1174     -2439.6007     -613.68536      1770.2405      15588.437     -6731.4273     -63.846775      1.0300481      49343.613      43           
     40200   295.23017      7270.9465     -2398.1501     -893.35082      1736.2403      15662.134     -6773.2969     -62.630291      1.0251577      49579.002      43           
     40300   294.88346      7229.4692     -2381.648      -899.31621      1729.5774      15535.157     -6701.9358     -52.365046      1.0217051      49746.543      43           
     40400   292.49815      7395.4219     -2411.1049     -746.9639       1799.0171      15586.31      -6765.4679     -66.368152      1.0186667      49894.926      43           
     40500   297.50778      7294.5231     -2415.726      -820.28814      1777.7215      15561.797     -6744.253      -64.728191      1.0160292      50024.446      43           
     40600   296.35245      7338.7744     -2409.9571     -903.50799      1784.7068      15676.91      -6751.7051     -57.671934      1.0131039      50168.89       43           
     40700   298.62899      7372.9486     -2386.5923     -852.57538      1781.0904      15556.9       -6669.1232     -56.750966      1.0117914      50233.968      43           
     40800   297.84199      7341.1592     -2387.3409     -877.562        1776.4182      15644.127     -6757.9713     -56.511599      1.0104259      50301.853      43           
     40900   293.39066      79550.681      887.23103     -689.14055      70623.015      15522.299     -6732.8594     -59.864406      1.0101         50318.086      45           
     41000   296.01646      132294.42     -1103.2319     -725.98169      125685.26      15178.963     -6682.095      -58.501303      1.0432695      48718.28       46           
     41100   300.18868      7066.0622     -2510.4897     -780.15794      1758.4062      15390.18      -6735.4255     -56.450447      1.0813355      47003.264      46           
     41200   304.60129      6777.6753     -2456.1595     -879.39628      1714.9741      15176.394     -6718.2192     -59.917344      1.0764637      47215.987      46           
     41300   298.69226      6892.6388     -2475.0546     -783.26213      1655.9796      15229.449     -6675.8706     -58.602357      1.0707241      47469.088      46           
     41400   298.8708       558649.8      -42.494087     -837.52916      551337.54      15019.844     -6765.281      -62.282247      1.0655235      47700.777      47           
     41500   318.85374      7528.4298     -2412.6774     -577.48814      1809.8549      15532.588     -6763.165      -60.682869      1.1578481      43897.205      47           
     41600   319.9951       6977.5811     -2434.6396     -777.30543      1626.4077      15343.603     -6722.6325     -57.851819      1.1474458      44295.162      47           
     41700   307.12404      6843.6616     -2414.8694     -804.03312      1715.6772      15151.472     -6743.5047     -61.080626      1.1347478      44790.831      47           
     41800   298.73972      6648.4672     -2475.0108     -884.59889      1686.0323      15079.23      -6698.7715     -58.414184      1.1219843      45300.363      47           
     41900   299.5357       6477.2523     -2528.7223     -906.41863      1629.3341      15112.465     -6769.8062     -59.599235      1.110398       45773.044      47           
     42000   294.32802      6564.6768     -2497.249      -875.78377      1626.1654      15123.152     -6759.4881     -52.119731      1.0993459      46233.217      47           
     42100   297.09639      6613.8903     -2512.2938     -922.11945      1674.934       15120.405     -6689.1613     -57.87381       1.0894173      46654.571      47           
     42200   300.97334      6724.6928     -2464.855      -874.31216      1656.5366      15168.995     -6709.3949     -52.27672       1.0810844      47014.18       47           
     42300   303.56707      6704.277      -2483.4667     -907.64502      1700.5003      15244.386     -6798.8511     -50.64617       1.0726935      47381.937      47           
     42400   297.11241      6740.3649     -2455.8842     -944.70167      1683.2737      15212.886     -6700.0781     -55.130341      1.0647416      47735.803      47           
[...]
     55100   301.88935      5962.8953     -2495.6326     -1003.438       1873.8025      14513.322     -6878.2811     -46.877906      1.013829       50133.01       52           
     55200   302.97965      6171.9908     -2457.7966     -894.75218      1825.3239      14509.23      -6761.7194     -48.294684      1.0169194      49980.657      52           
     55300   309.10441      6217.9549     -2457.1507     -794.60289      1805.5309      14565.423     -6858.4009     -42.844274      1.0203602      49812.111      52           
     55400   302.63417      6007.3305     -2484.6589     -990.3388       1880.2603      14464.169     -6806.611      -55.490221      1.0218787      49738.091      52           
     55500   299.63936      5879.805      -2474.6422     -1093.9966      1857.2412      14454.509     -6815.8708     -47.435802      1.0221613      49724.343      52           
     55600   301.89118      6154.5216     -2497.8619     -798.59958      1811.5659      14538.645     -6845.5206     -53.707662      1.0243959      49615.874      52           
     55700   300.46623      6160.1423     -2462.4825     -865.80461      1863.3103      14506.077     -6830.0731     -50.884437      1.0266537      49506.761      52           
     55800   301.39288      6116.3261     -2444.4368     -890.19391      1825.9961      14504.417     -6826.2756     -53.180952      1.0289742      49395.116      52           
     55900   294.843        6179.0411     -2452.3053     -843.43097      1854.0033      14507.21      -6839.4907     -46.945525      1.0293237      49378.34       52           
     56000   299.78611      5884.6172     -2491.016      -1008.5894      1764.1128      14556.375     -6878.0016     -58.263576      1.0287231      49407.17       52           
     56100   295.52556      6054.6734     -2478.0376     -933.85535      1807.2577      14540.276     -6828.6217     -52.345408      1.0287002      49408.269      52           
     56200   300.08601      6225.3055     -2476.2137     -832.46597      1850.971       14534.712     -6802.8268     -48.871575      1.0277491      49453.994      52           
     56300   303.51807      5916.4284     -2460.5083     -1110.1928      1824.3296      14547.557     -6830.651      -54.106337      1.0272458      49478.224      52           
     56400   299.55655      6122.7342     -2456.5684     -886.74385      1837.4388      14443.04      -6769.0241     -45.408082      1.0260775      49534.561      52           
     56500   297.64702      6048.0398     -2437.9192     -934.26994      1769.4221      14433.893     -6733.0901     -49.996137      1.0235021      49659.201      52           
     56600   297.57868      5942.853      -2439.6429     -1045.4901      1863.9678      14521.897     -6904.2989     -53.580497      1.0194065      49858.716      52           
     56700   304.9134       5876.5585     -2414.7        -1163.3339      1854.6111      14451.95      -6801.7908     -50.177977      1.0168794      49982.62       52           
     56800   301.6666       6138.6977     -2448.8276     -1007.6453      1915.9332      14466.698     -6728.1435     -59.316979      1.0149953      50075.4        52           
     56900   302.76797      6056.9037     -2449.9617     -993.47021      1895.0786      14434.927     -6776.2321     -53.438153      1.0157117      50040.084      52           
     57000   299.28616      6199.4159     -2476.2108     -826.18826      1889.9734      14494.38      -6826.29       -56.248462      1.0173606      49958.981      52           
     57100   295.733        6116.5705     -2422.1728     -908.06305      1882.6861      14492.751     -6874.7559     -53.874489      1.0209872      49781.525      52           
     57200   299.88985      6064.3225     -2462.5514     -900.01708      1792.2426      14540.282     -6851.1233     -54.510779      1.022937       49686.633      52           
     57300   300.39846      5966.4305     -2466.935      -1040.4605      1844.6573      14520.487     -6835.6172     -55.701071      1.0233884      49664.718      52           
     57400   303.07406      6274.4917     -2450.2762     -781.08447      1850.0878      14548.805     -6845.5224     -47.518481      1.0235881      49655.029      52           
     57500   303.34311      6215.8793     -2459.7313     -837.07754      1860.2518      14542.155     -6829.1205     -60.598146      1.0241084      49629.8        52           
     57600   300.76557      5930.5434     -2477.7594     -1015.5477      1830.6122      14441.689     -6795.8519     -52.5986        1.0238858      49640.591      52           
     57700   297.78202      5933.8811     -2482.3534     -1042.6247      1861.2423      14456.607     -6810.6948     -48.295154      1.0254285      49565.912      52           
     57800   298.85681      5963.512      -2461.3076     -1050.3018      1880.3868      14503.193     -6852.9003     -55.557947      1.0267241      49503.363      52           
     57900   298.61473      6035.2145     -2458.1783     -1019.1838      1870.5005      14466.232     -6773.2777     -50.877894      1.0280737      49438.38       52           
     58000   306.08071      6001.6677     -2448.2245     -941.65017      1834.1833      14407.604     -6806.5383     -43.706637      1.0273463      49473.382      52           
     58100   300.57689      5981.6769     -2470.1422     -959.16646      1867.9423      14435.951     -6844.3932     -48.514095      1.0251476      49579.49       52           
     58200   296.56789      6081.2647     -2462.5317     -868.50631      1806.0714      14455.004     -6798.3121     -50.461075      1.0229861      49684.25       52           
     58300   295.92958      6162.287      -2453.4249     -824.78409      1802.0578      14472.224     -6779.9405     -53.845021      1.0204856      49805.991      52           
     58400   301.94526      6083.4953     -2482.3275     -934.03639      1794.0346      14579.686     -6817.6793     -56.182366      1.019901       49834.538      52           
     58500   300.06708      6016.8453     -2462.4659     -1033.5966      1850.9357      14535.258     -6822.6131     -50.672844      1.0221329      49725.722      52           
     58600   304.91271      6050.1499     -2499.5048     -928.21692      1808.7509      14502.47      -6779.3523     -53.996573      1.0221956      49722.672      52           
     58700   297.83726      6017.9404     -2464.9229     -1002.1122      1874.6174      14513.737     -6853.9119     -49.466524      1.0224537      49710.12       52           
     58800   295.91631      5926.2983     -2454.6867     -1032.0356      1833.8267      14340.499     -6711.8723     -49.432699      1.0238429      49642.67       52           
     58900   293.29954      5955.2266     -2512.5587     -885.69827      1793.6128      14421.781     -6813.1209     -48.789817      1.0242338      49623.726      52           
     59000   291.16837      5940.4002     -2480.1824     -967.88364      1803.5093      14513.885     -6880.5624     -48.366016      1.0250478      49584.317      52           
     59100   296.36457      6015.9208     -2517.2284     -898.74513      1799.6766      14436.281     -6752.6528     -51.410459      1.0270884      49485.805      52           
     59200   296.90324      6059.9116     -2449.0485     -938.91488      1853.9529      14471.52      -6831.7439     -45.853618      1.0311519      49290.797      52           
     59300   301.60354      6099.3653     -2468.4227     -880.60221      1820.758       14504.58      -6824.3817     -52.565899      1.0296015      49365.021      52           
     59400   299.99835      5998.4939     -2485.3584     -1005.3009      1879.4275      14496.646     -6838.052      -48.86802       1.0262141      49527.967      52           
     59500   296.26747      5910.5567     -2480.2813     -1047.4489      1901.903       14345.163     -6756.5064     -52.272272      1.0228576      49690.493      52           
     59600   292.41928      5922.0237     -2487.8339     -1051.1061      1835.6467      14571.049     -6895.9483     -49.783292      1.0208428      49788.564      52           
     59700   298.09229      5978.0915     -2485.2764     -1001.266       1864.3446      14478.03      -6818.17       -59.570687      1.0202717      49816.435      52           
     59800   299.45828      154954.64     -1226.1652     -924.33897      149698.12      14282.853     -6826.5762     -49.248719      1.01907        49875.178      53           
     59900   308.10145      5993.5109     -2524.4527     -950.08482      1804.1977      14608.343     -6891.6891     -52.803434      1.0692003      47536.743      53           
     60000   307.1073       5788.4345     -2512.1165     -1054.3646      1804.1131      14475.914     -6875.5261     -49.585343      1.0672475      47623.721      53           
     60100   298.1762       5812.6499     -2528.3124     -1053.5585      1803.5003      14368.323     -6714.463      -62.839697      1.0636158      47786.329      53           
     60200   299.08619      5800.08       -2525.7425     -961.28755      1785.5992      14419.232     -6862.8529     -54.868257      1.0599872      47949.914      53           
     60300   297.81131      5789.5654     -2536.2107     -944.12528      1813.5697      14393.115     -6882.2257     -54.557734      1.0574252      48066.092      53           
     60400   297.86041      5794.5623     -2541.5904     -995.67962      1807.2881      14391.278     -6811.1529     -55.581042      1.0551055      48171.767      53           
     60500   304.42398      5834.7426     -2543.7563     -962.76414      1774.9801      14404.873     -6776.4646     -62.125563      1.0521393      48307.575      53           
     60600   300.69177      398519.56     -526.5783      -1011.8656      392752.6       14174.001     -6820.1691     -48.427598      1.0494102      48433.201      54           
     60700   310.50854      6279.9656     -2504.5377     -933.01389      1936.0614      14632.213     -6803.7339     -47.023611      1.1205358      45358.924      54           
     60800   311.17434      5858.763      -2511.1571     -1086.2551      1863.2119      14496.006     -6850.5732     -52.469409      1.1144649      45606.012      54           
     60900   301.18096      5975.5788     -2534.5903     -832.26965      1799.4138      14358.268     -6759.1024     -56.141065      1.1066806      45926.797      54           
     61000   297.30882      5874.0715     -2528.0953     -799.16898      1764.2796      14277.862     -6791.4539     -49.351451      1.1000504      46203.607      54           
     61100   299.84139      5540.8103     -2602.8494     -995.55489      1739.1881      14265.156     -6810.471      -54.658753      1.0926139      46518.078      54           
     61200   295.13159      5608.8194     -2583.1201     -1055.202       1768.572       14289.833     -6763.3729     -47.890404      1.086427       46782.985      54           
     61300   302.06033      5649.0813     -2567.9804     -1016.954       1781.7194      14301.813     -6803.0873     -46.42981       1.0803621      47045.614      54           
     61400   304.65333      5723.9783     -2531.5038     -956.21091      1789.4708      14325.466     -6855.4526     -47.791004      1.0747562      47291          54           
     61500   303.81916      5759.0039     -2560.2653     -1040.153       1854.5836      14402.713     -6847.0907     -50.783804      1.0691428      47539.298      54           
     61600   302.04177      5883.2426     -2497.2851     -885.62065      1807.1799      14330.79      -6821.0149     -50.806272      1.0639991      47769.117      54           
     61700   296.73539      5941.105      -2512.5912     -792.35549      1734.0276      14360.327     -6803.001      -45.301735      1.0596688      47964.324      54           
     61800   297.63489      5781.048      -2527.9233     -897.2778       1799.427       14307.378     -6849.7498     -50.806502      1.0554812      48154.619      54           
     61900   298.44571      5605.6306     -2504.3678     -1068.122       1765.0726      14259.736     -6795.8879     -50.800687      1.0519572      48315.937      54           
     62000   300.54754      5680.5821     -2475.119      -1090.732       1827.666       14315.826     -6842.4042     -54.654275      1.0491402      48445.666      54           
     62100   306.73186      5819.3207     -2503.3814     -900.71362      1877.4728      14222.742     -6828.61       -48.188989      1.0462268      48580.575      54           
     62200   299.12726      5774.7491     -2495.2442     -985.32199      1829.8341      14262.17      -6789.4596     -47.229405      1.0431048      48725.974      54           
     62300   298.67185      5685.3698     -2507.6765     -976.9617       1819.6393      14152.688     -6755.8061     -46.513564      1.0401444      48864.657      54           
     62400   296.85644      5847.9534     -2494.1251     -854.335        1878.5966      14195.92      -6822.3407     -55.762521      1.0385218      48941.001      54           
     62500   302.02856      5762.7442     -2474.4388     -957.20577      1784.2213      14240.148     -6777.9491     -52.031539      1.0365931      49032.062      54           
     62600   302.13803      5772.7973     -2464.9066     -984.03026      1834.1871      14253.726     -6810.4831     -55.695539      1.0352447      49095.927      54           
     62700   303.15777      5750.1604     -2509.9981     -958.97294      1840.4306      14213.305     -6779.5542     -55.049715      1.0330698      49199.288      54           
     62800   298.30019      5641.7898     -2452.7388     -1048.0407      1809.0805      14180.977     -6798.0827     -49.40548       1.0318893      49255.571      54           
     62900   294.71275      5565.6292     -2482.8635     -1129.552       1804.5051      14204.322     -6785.0797     -45.702882      1.0295802      49366.041      54           
     63000   298.05722      5588.7568     -2483.4302     -1151.0984      1827.3946      14277.759     -6828.1755     -53.692774      1.02959        49365.568      54           
     63100   295.82246      5689.5261     -2489.263      -1175.9659      1843.9803      14311.092     -6752.2088     -48.108476      1.029898       49350.807      54           
     63200   297.12581      139807.3       726.42494     -962.74239      132719.92      14140.001     -6775.9434     -40.361677      1.029415       49373.963      55           
     63300   304.6139       5854.2106     -2552.9302     -832.91627      1826.7111      14233.041     -6776.3523     -43.342386      1.0757445      47247.553      55           
     63400   304.21297      5696.474      -2522.1778     -853.37779      1747.8246      14266.015     -6890.9377     -50.872605      1.0737078      47337.177      55           
     63500   298.73778      5719.7409     -2535.4992     -838.59117      1740.4948      14165.625     -6756.1843     -56.104467      1.0700458      47499.181      55           
     63600   297.6171       5661.7615     -2504.5253     -870.29771      1783.8885      14125.314     -6826.6787     -45.939077      1.0658471      47686.295      55           
     63700   301.73495      5592.1881     -2540.6825     -953.20434      1830.318       14152.418     -6842.5968     -54.064253      1.0618894      47864.024      55           
     63800   303.52915      5551.9328     -2518.9518     -1059.0494      1803.0266      14212.834     -6835.9081     -50.018823      1.0585629      48014.434      55           
     63900   297.50682      5873.8303     -2515.1792     -804.37497      1848.7824      14154.318     -6755.7368     -53.978782      1.0557052      48144.404      55           
     64000   298.82578      5637.1496     -2508.6476     -895.91472      1777.2421      14149.886     -6843.8071     -41.609161      1.0529562      48270.096      55           
     64100   297.27629      5512.9628     -2551.2492     -958.37839      1777.356       14195.469     -6897.6741     -52.560111      1.0499719      48407.293      55           
     64200   296.20055      5505.5192     -2520.1341     -1046.2818      1807.4557      14123.047     -6815.2833     -43.284133      1.0485542      48472.74       55           
     64300   299.20879      5861.5903     -2488.7548     -725.96406      1810.4386      14034.774     -6719.6219     -49.281379      1.0465811      48564.126      55           
     64400   303.48023      5687.7633     -2494.396      -886.68943      1799.0864      14137.896     -6823.9263     -44.207168      1.0451241      48631.829      55           
     64500   300.76109      5682.1655     -2485.7428     -940.8159       1803.8224      14136.326     -6787.4266     -43.997305      1.0425891      48750.076      55           
     64600   299.19468      5641.0737     -2485.4141     -982.08272      1776.9644      14146.709     -6770.8999     -44.202914      1.0398616      48877.943      55           
     64700   294.41957      5706.2471     -2494.4253     -889.67931      1856.9932      14103.744     -6827.9525     -42.432801      1.0382623      48953.234      55           
     64800   295.76093      5572.0111     -2487.2462     -912.40907      1775.0956      14114.746     -6860.7281     -57.44711       1.0390233      48917.38       55           
     64900   294.50955      5544.5516     -2515.7968     -1042.5227      1841.1474      14028.879     -6715.9745     -51.18089       1.0380482      48963.33       55           
     65000   300.37968      5670.0488     -2531.7504     -930.51857      1782.937       14146.267     -6755.6493     -41.237348      1.0384432      48944.707      55           
     65100   300.98764      5724.9384     -2515.3148     -873.72318      1833.052       14150.743     -6820.647      -49.171222      1.0378923      48970.686      55           
     65200   302.44637      5665.2021     -2512.7438     -847.76255      1731.6377      14207.91      -6863.4341     -50.405028      1.0366784      49028.03       55           
     65300   296.4173       5440.8422     -2458.3989     -1076.0371      1765.9422      14088.445     -6832.2932     -46.815363      1.0345461      49129.077      55           
     65400   291.3652       5515.0411     -2520.0313     -1086.1013      1823.5341      14196.523     -6846.6493     -52.234016      1.0322955      49236.192      55           
     65500   298.64449      5705.3146     -2501.5009     -931.41598      1822.3581      14255.676     -6888.2679     -51.534538      1.0332568      49190.383      55           
     65600   298.11229      5658.3336     -2475.061      -1031.9468      1844.595       14282.155     -6912.6777     -48.730576      1.0325794      49222.655      55           
     65700   302.2844       5528.7062     -2520.276      -1069.5172      1853.122       14179.933     -6866.2371     -48.31805       1.0313249      49282.525      55           
     65800   299.10664      5471.5675     -2521.0172     -1103.3477      1824.3866      14225.231     -6904.9249     -48.760057      1.0309333      49301.246      55           
     65900   296.29063      5491.7362     -2489.5713     -1054.2954      1844.1313      14124.347     -6882.4387     -50.436874      1.0310546      49295.449      55           
     66000   296.2693       378190.92     -317.62651     -899.2947       372162.19      14102.256     -6810.6888     -45.920176      1.0307914      49308.032      56           
     66100   309.39917      7446647.8     -228.8774      -701.40632      7440667.8      13751.559     -6798.5251     -42.708673      1.1035879      46055.503      57           
     66200   573.6342       23196.018      4439.8703     -765.85073      7889.9258      18637.254     -6908.6635     -96.517588      1.633202       31120.644      57           
ERROR on proc 0: Bond atoms 4611 4335 missing on proc 0 at step 66204 (../ntopo_bond_all.cpp:59)
Last command: run 200000
