LAMMPS (22 Dec 2022)
# PREREQUISITES:
#
#     You must use moltemplate.sh to create 3 files:
#        system.data  system.in.init  system.in.settings
#     (Follow the instructions in README_setup.sh,
#      or run the file as a script using ./README_setup.sh)

# ------------------------------- Initialization Section --------------------

units real
atom_style full
pair_style lj/class2/coul/long 10.0 10.0
bond_style class2
angle_style class2
dihedral_style class2
improper_style class2
kspace_style pppm/cg 0.001

pair_modify     mix sixthpower tail yes
special_bonds   lj/coul 0 0 1


# ------------------------------- Atom Definition Section -------------------

read_data       "reacted_lmp.data"
Reading data file ...
  orthogonal box = (6.100545 6.100545 6.100545) to (45.040438 45.040438 45.040438)
  2 by 3 by 4 MPI processor grid
  reading atoms ...
  5000 atoms
  reading velocities ...
  5000 velocities
  scanning bonds ...
  4 = max bonds/atom
  scanning angles ...
  6 = max angles/atom
  scanning dihedrals ...
  14 = max dihedrals/atom
  scanning impropers ...
  4 = max impropers/atom
  reading bonds ...
  5342 bonds
  reading angles ...
  9512 angles
  reading dihedrals ...
  13457 dihedrals
  reading impropers ...
  4640 impropers
Finding 1-2 1-3 1-4 neighbors ...
  special bond factors lj:    0        0        1       
  special bond factors coul:  0        0        1       
     4 = max # of 1-2 neighbors
     7 = max # of 1-3 neighbors
    11 = max # of special neighbors
  special bonds CPU = 0.004 seconds
  read_data CPU = 0.366 seconds

include calc.pram

# Masses

mass		1    12.01115  # c
mass		2    12.01115  # c1
mass		3    12.01115  # c3h
mass		4    12.01115  # cp
mass		5     1.00797  # h
mass		6     1.00797  # hc
mass		7    15.99940  # o3e
mass		8    15.99940  # oc
mass		9    15.99940  # oh

# Potentials

pair_coeff	 1  1    0.05400    4.01000  # c,c
pair_coeff	 2  2    0.05400    4.01000  # c1,c1
pair_coeff	 3  3    0.05400    4.01000  # c3h,c3h
pair_coeff	 4  4    0.06400    4.01000  # cp,cp
pair_coeff	 5  5    0.02000    2.99500  # h,h
pair_coeff	 6  6    0.02000    2.99500  # hc,hc
pair_coeff	 7  7    0.24000    3.53500  # o3e,o3e
pair_coeff	 8  8    0.24000    3.53500  # oc,oc
pair_coeff	 9  9    0.24000    3.53500  # oh,oh

# Bond Coeffs

bond_coeff	 1    1.53000  299.67000 -501.77000  679.81000  # c,c
bond_coeff	 2    1.53000  299.67000 -501.77000  679.81000  # c,c1
bond_coeff	 3    1.53000  299.67000 -501.77000  679.81000  # c,c3h
bond_coeff	 4    1.50100  321.90210 -521.82080  572.16280  # c,cp
bond_coeff	 5    1.10100  345.00000 -691.89000  844.60000  # c,hc
bond_coeff	 6    1.42000  400.39540 -835.19510 1313.01420  # c,o3e
bond_coeff	 7    1.42000  400.39540 -835.19510 1313.01420  # c,oc
bond_coeff	 8    1.42000  400.39540 -835.19510 1313.01420  # c,oh
bond_coeff	 9    1.10100  345.00000 -691.89000  844.60000  # c1,hc
bond_coeff	10    1.42000  400.39540 -835.19510 1313.01420  # c1,oc
bond_coeff	11    1.10100  345.00000 -691.89000  844.60000  # c3h,hc
bond_coeff	12    1.42000  400.39540 -835.19510 1313.01420  # c3h,o3e
bond_coeff	13    1.41700  470.83610 -627.61790 1327.63450  # cp,cp
bond_coeff	14    1.09820  372.82510 -803.45260  894.31730  # cp,hc
bond_coeff	15    1.37680  428.87980 -738.23510 1114.96550  # cp,oc
bond_coeff	16    0.96000  493.84800    0.00000    0.00000  # h,oh

# Angle Coeffs

angle_coeff	 1  112.67000   39.51600   -7.44300   -9.55830  # c,c,c
angle_coeff	 2  110.77000   41.45300  -10.60400    5.12900  # c,c,hc
angle_coeff	 3  111.27000   54.53810   -8.36420  -13.08380  # c,c,oc
angle_coeff	 4  112.67000   39.51600   -7.44300   -9.55830  # c,c1,c
angle_coeff	 5  110.77000   41.45300  -10.60400    5.12900  # c,c1,hc
angle_coeff	 6  111.27000   54.53810   -8.36420  -13.08380  # c,c1,oc
angle_coeff	 7  112.67000   39.51600   -7.44300   -9.55830  # c,c3h,c
angle_coeff	 8  110.77000   41.45300  -10.60400    5.12900  # c,c3h,hc
angle_coeff	 9  111.27000   54.53810   -8.36420  -13.08380  # c,c3h,o3e
angle_coeff	10  120.05000   44.71480  -22.73520    0.00000  # c,cp,cp
angle_coeff	11  104.50000   35.74540  -10.00670   -6.27290  # c,o3e,c3h
angle_coeff	12  104.50000   35.74540  -10.00670   -6.27290  # c,oc,c1
angle_coeff	13  102.96950   38.97390   -6.25950   -8.17100  # c,oc,cp
angle_coeff	14  109.00000   58.50000    0.00000    0.00000  # c,oh,h
angle_coeff	15  110.77000   41.45300  -10.60400    5.12900  # c1,c,hc
angle_coeff	16  111.27000   54.53810   -8.36420  -13.08380  # c1,c,oc
angle_coeff	17  111.27000   54.53810   -8.36420  -13.08380  # c1,c,oh
angle_coeff	18  110.77000   41.45300  -10.60400    5.12900  # c3h,c,hc
angle_coeff	19  111.27000   54.53810   -8.36420  -13.08380  # c3h,c,o3e
angle_coeff	20  111.27000   54.53810   -8.36420  -13.08380  # c3h,c,oc
angle_coeff	21  111.00000   44.32340   -9.44540    0.00000  # cp,c,cp
angle_coeff	22  111.00000   44.32340   -9.44540    0.00000  # cp,c,hc
angle_coeff	23  118.90000   61.02260  -34.99310    0.00000  # cp,cp,cp
angle_coeff	24  117.94000   35.15580  -12.46820    0.00000  # cp,cp,hc
angle_coeff	25  123.42000   73.67810  -21.67870    0.00000  # cp,cp,oc
angle_coeff	26  107.66000   39.64100  -12.92100   -2.43180  # hc,c,hc
angle_coeff	27  108.72800   58.54460  -10.80880  -12.40060  # hc,c,o3e
angle_coeff	28  108.72800   58.54460  -10.80880  -12.40060  # hc,c,oc
angle_coeff	29  108.72800   58.54460  -10.80880  -12.40060  # hc,c,oh
angle_coeff	30  108.72800   58.54460  -10.80880  -12.40060  # hc,c1,oc
angle_coeff	31  108.72800   58.54460  -10.80880  -12.40060  # hc,c3h,o3e

# BondBond Coeffs

angle_coeff	 1 bb    0.00000    1.53000    1.53000  # c,c,c
angle_coeff	 2 bb    3.38720    1.53000    1.10100  # c,c,hc
angle_coeff	 3 bb   11.43180    1.53000    1.42000  # c,c,oc
angle_coeff	 4 bb    0.00000    1.53000    1.53000  # c,c1,c
angle_coeff	 5 bb    3.38720    1.53000    1.10100  # c,c1,hc
angle_coeff	 6 bb   11.43180    1.53000    1.42000  # c,c1,oc
angle_coeff	 7 bb    0.00000    1.53000    1.53000  # c,c3h,c
angle_coeff	 8 bb    3.38720    1.53000    1.10100  # c,c3h,hc
angle_coeff	 9 bb   11.43180    1.53000    1.42000  # c,c3h,o3e
angle_coeff	10 bb   12.06760    1.50100    1.41700  # c,cp,cp
angle_coeff	11 bb   -7.11310    1.42000    1.42000  # c,o3e,c3h
angle_coeff	12 bb   -7.11310    1.42000    1.42000  # c,oc,c1
angle_coeff	13 bb    0.00000    1.42000    1.37680  # c,oc,cp
angle_coeff	14 bb    0.00000    1.42000    0.96000  # c,oh,h
angle_coeff	15 bb    3.38720    1.53000    1.10100  # c1,c,hc
angle_coeff	16 bb   11.43180    1.53000    1.42000  # c1,c,oc
angle_coeff	17 bb   11.43180    1.53000    1.42000  # c1,c,oh
angle_coeff	18 bb    3.38720    1.53000    1.10100  # c3h,c,hc
angle_coeff	19 bb   11.43180    1.53000    1.42000  # c3h,c,o3e
angle_coeff	20 bb   11.43180    1.53000    1.42000  # c3h,c,oc
angle_coeff	21 bb    0.00000    1.50100    1.50100  # cp,c,cp
angle_coeff	22 bb    2.91680    1.50100    1.10100  # cp,c,hc
angle_coeff	23 bb   68.28560    1.41700    1.41700  # cp,cp,cp
angle_coeff	24 bb    1.07950    1.41700    1.09820  # cp,cp,hc
angle_coeff	25 bb   48.47540    1.41700    1.37680  # cp,cp,oc
angle_coeff	26 bb    5.33160    1.10100    1.10100  # hc,c,hc
angle_coeff	27 bb   23.19790    1.10100    1.42000  # hc,c,o3e
angle_coeff	28 bb   23.19790    1.10100    1.42000  # hc,c,oc
angle_coeff	29 bb   23.19790    1.10100    1.42000  # hc,c,oh
angle_coeff	30 bb   23.19790    1.10100    1.42000  # hc,c1,oc
angle_coeff	31 bb   23.19790    1.10100    1.42000  # hc,c3h,o3e

# BondAngle Coeffs

angle_coeff	 1 ba    8.01600    8.01600    1.53000    1.53000  # c,c,c
angle_coeff	 2 ba   20.75400   11.42100    1.53000    1.10100  # c,c,hc
angle_coeff	 3 ba   20.40330    2.68680    1.53000    1.42000  # c,c,oc
angle_coeff	 4 ba    8.01600    8.01600    1.53000    1.53000  # c,c1,c
angle_coeff	 5 ba   20.75400   11.42100    1.53000    1.10100  # c,c1,hc
angle_coeff	 6 ba   20.40330    2.68680    1.53000    1.42000  # c,c1,oc
angle_coeff	 7 ba    8.01600    8.01600    1.53000    1.53000  # c,c3h,c
angle_coeff	 8 ba   20.75400   11.42100    1.53000    1.10100  # c,c3h,hc
angle_coeff	 9 ba    2.68680   20.40330    1.53000    1.42000  # c,c3h,o3e
angle_coeff	10 ba   31.07710   47.05790    1.50100    1.41700  # c,cp,cp
angle_coeff	11 ba   -2.81120   -2.81120    1.42000    1.42000  # c,o3e,c3h
angle_coeff	12 ba   -2.81120   -2.81120    1.42000    1.42000  # c,oc,c1
angle_coeff	13 ba    0.00000    0.00000    1.42000    1.37680  # c,oc,cp
angle_coeff	14 ba    0.00000    0.00000    1.42000    0.96000  # c,oh,h
angle_coeff	15 ba   11.42100   20.75400    1.53000    1.10100  # c1,c,hc
angle_coeff	16 ba   20.40330    2.68680    1.53000    1.42000  # c1,c,oc
angle_coeff	17 ba   20.40330    2.68680    1.53000    1.42000  # c1,c,oh
angle_coeff	18 ba   11.42100   20.75400    1.53000    1.10100  # c3h,c,hc
angle_coeff	19 ba    2.68680   20.40330    1.53000    1.42000  # c3h,c,o3e
angle_coeff	20 ba   20.40330    2.68680    1.53000    1.42000  # c3h,c,oc
angle_coeff	21 ba    0.00000    0.00000    1.50100    1.50100  # cp,c,cp
angle_coeff	22 ba   26.46080   11.77170    1.50100    1.10100  # cp,c,hc
angle_coeff	23 ba   28.87080   28.87080    1.41700    1.41700  # cp,cp,cp
angle_coeff	24 ba   20.00330   24.21830    1.41700    1.09820  # cp,cp,hc
angle_coeff	25 ba   58.47900  107.68060    1.41700    1.37680  # cp,cp,oc
angle_coeff	26 ba   18.10300   18.10300    1.10100    1.10100  # hc,c,hc
angle_coeff	27 ba    4.61890   55.32700    1.10100    1.42000  # hc,c,o3e
angle_coeff	28 ba   55.32700    4.61890    1.10100    1.42000  # hc,c,oc
angle_coeff	29 ba    4.61890   55.32700    1.10100    1.42000  # hc,c,oh
angle_coeff	30 ba   55.32700    4.61890    1.10100    1.42000  # hc,c1,oc
angle_coeff	31 ba    4.61890   55.32700    1.10100    1.42000  # hc,c3h,o3e

# Dihedral Coeffs

dihedral_coeff	 1    0.00000    0.00000    0.03160    0.00000   -0.16810    0.00000  # c,c,c,hc
dihedral_coeff	 2    0.71370    0.00000    0.26600    0.00000   -0.25450    0.00000  # c,c,c,oc
dihedral_coeff	 3   -0.52030    0.00000   -0.30280    0.00000   -0.34500    0.00000  # c,c,oc,c1
dihedral_coeff	 4    0.00000    0.00000    0.00000    0.00000    0.13000  180.00000  # c,c,oc,cp
dihedral_coeff	 5    0.00000    0.00000    0.03160    0.00000   -0.16810    0.00000  # c,c1,c,hc
dihedral_coeff	 6    0.71370    0.00000    0.26600    0.00000   -0.25450    0.00000  # c,c1,c,oc
dihedral_coeff	 7    0.71370    0.00000    0.26600    0.00000   -0.25450    0.00000  # c,c1,c,oh
dihedral_coeff	 8   -0.52030    0.00000   -0.30280    0.00000   -0.34500    0.00000  # c,c1,oc,c
dihedral_coeff	 9    0.00000    0.00000    0.03160    0.00000   -0.16810    0.00000  # c,c3h,c,hc
dihedral_coeff	10    0.71370    0.00000    0.26600    0.00000   -0.25450    0.00000  # c,c3h,c,o3e
dihedral_coeff	11    0.71370    0.00000    0.26600    0.00000   -0.25450    0.00000  # c,c3h,c,oc
dihedral_coeff	12   -0.52030    0.00000   -0.30280    0.00000   -0.34500    0.00000  # c,c3h,o3e,c
dihedral_coeff	13    0.00000    0.00000    4.40720    0.00000    0.00000    0.00000  # c,cp,cp,cp
dihedral_coeff	14    0.00000    0.00000    1.55900    0.00000    0.00000    0.00000  # c,cp,cp,hc
dihedral_coeff	15    0.53020    0.00000    0.00000    0.00000   -0.39660    0.00000  # c,o3e,c3h,hc
dihedral_coeff	16    0.53020    0.00000    0.00000    0.00000   -0.39660    0.00000  # c,oc,c1,hc
dihedral_coeff	17    0.00000    0.00000    1.50000    0.00000    0.00000    0.00000  # c,oc,cp,cp
dihedral_coeff	18   -0.52030    0.00000   -0.30280    0.00000   -0.34500    0.00000  # c1,c,oc,c1
dihedral_coeff	19    0.00000    0.00000    0.00000    0.00000    0.13000  180.00000  # c1,c,oc,cp
dihedral_coeff	20    0.00000    0.00000    0.00000    0.00000    0.13000  180.00000  # c1,c,oh,h
dihedral_coeff	21    0.53020    0.00000    0.00000    0.00000   -0.39660    0.00000  # c1,oc,c,hc
dihedral_coeff	22    0.00000    0.00000    0.00000    0.00000    0.13000  180.00000  # c3h,c,oc,cp
dihedral_coeff	23    0.53020    0.00000    0.00000    0.00000   -0.39660    0.00000  # c3h,o3e,c,hc
dihedral_coeff	24   -0.28020    0.00000   -0.06780    0.00000   -0.01220    0.00000  # cp,c,cp,cp
dihedral_coeff	25   -0.28010    0.00000   -0.06780    0.00000   -0.01220    0.00000  # cp,cp,c,hc
dihedral_coeff	26    8.36670    0.00000    1.19320    0.00000    0.00000    0.00000  # cp,cp,cp,cp
dihedral_coeff	27    0.00000    0.00000    3.96610    0.00000    0.00000    0.00000  # cp,cp,cp,hc
dihedral_coeff	28    0.00000    0.00000    4.84980    0.00000    0.00000    0.00000  # cp,cp,cp,oc
dihedral_coeff	29    0.95130    0.00000    0.11550    0.00000    0.07200    0.00000  # cp,oc,c,hc
dihedral_coeff	30    0.00000    0.00000    0.00000    0.00000    0.13000  180.00000  # h,oh,c,hc
dihedral_coeff	31   -0.14320    0.00000    0.06170    0.00000   -0.10830    0.00000  # hc,c,c,hc
dihedral_coeff	32   -0.14350    0.00000    0.25300    0.00000   -0.09050    0.00000  # hc,c,c,oc
dihedral_coeff	33   -0.14320    0.00000    0.06170    0.00000   -0.10830    0.00000  # hc,c,c1,hc
dihedral_coeff	34   -0.14350    0.00000    0.25300    0.00000   -0.09050    0.00000  # hc,c,c1,oc
dihedral_coeff	35   -0.14320    0.00000    0.06170    0.00000   -0.10830    0.00000  # hc,c,c3h,hc
dihedral_coeff	36   -0.14350    0.00000    0.25300    0.00000   -0.09050    0.00000  # hc,c,c3h,o3e
dihedral_coeff	37   -0.14350    0.00000    0.25300    0.00000   -0.09050    0.00000  # hc,c1,c,oc
dihedral_coeff	38   -0.14350    0.00000    0.25300    0.00000   -0.09050    0.00000  # hc,c1,c,oh
dihedral_coeff	39   -0.14350    0.00000    0.25300    0.00000   -0.09050    0.00000  # hc,c3h,c,o3e
dihedral_coeff	40   -0.14350    0.00000    0.25300    0.00000   -0.09050    0.00000  # hc,c3h,c,oc
dihedral_coeff	41    0.00000    0.00000    1.87690    0.00000    0.00000    0.00000  # hc,cp,cp,hc
dihedral_coeff	42    0.00000    0.00000    1.72340    0.00000    0.00000    0.00000  # hc,cp,cp,oc
dihedral_coeff	43   -0.18200    0.00000   -0.10840    0.00000   -0.70470    0.00000  # o3e,c3h,c,oc
dihedral_coeff	44   -0.18200    0.00000   -0.10840    0.00000   -0.70470    0.00000  # oc,c,c1,oc
dihedral_coeff	45   -0.18200    0.00000   -0.10840    0.00000   -0.70470    0.00000  # oc,c1,c,oh

# MiddleBondTorsion Coeffs

dihedral_coeff	 1 mbt  -14.87900   -3.65810   -0.31380    1.53000  # c,c,c,hc
dihedral_coeff	 2 mbt  -21.88420   -7.67640   -0.68680    1.53000  # c,c,c,oc
dihedral_coeff	 3 mbt   -5.92880   -2.70070   -0.31750    1.42000  # c,c,oc,c1
dihedral_coeff	 4 mbt    0.00000    0.00000    0.00000    1.42000  # c,c,oc,cp
dihedral_coeff	 5 mbt  -14.87900   -3.65810   -0.31380    1.53000  # c,c1,c,hc
dihedral_coeff	 6 mbt  -21.88420   -7.67640   -0.68680    1.53000  # c,c1,c,oc
dihedral_coeff	 7 mbt  -21.88420   -7.67640   -0.68680    1.53000  # c,c1,c,oh
dihedral_coeff	 8 mbt   -5.92880   -2.70070   -0.31750    1.42000  # c,c1,oc,c
dihedral_coeff	 9 mbt  -14.87900   -3.65810   -0.31380    1.53000  # c,c3h,c,hc
dihedral_coeff	10 mbt  -21.88420   -7.67640   -0.68680    1.53000  # c,c3h,c,o3e
dihedral_coeff	11 mbt  -21.88420   -7.67640   -0.68680    1.53000  # c,c3h,c,oc
dihedral_coeff	12 mbt   -5.92880   -2.70070   -0.31750    1.42000  # c,c3h,o3e,c
dihedral_coeff	13 mbt    0.00000    9.17920    0.00000    1.41700  # c,cp,cp,cp
dihedral_coeff	14 mbt    0.00000    3.94210    0.00000    1.41700  # c,cp,cp,hc
dihedral_coeff	15 mbt   -6.80070   -4.65460   -1.41010    1.42000  # c,o3e,c3h,hc
dihedral_coeff	16 mbt   -6.80070   -4.65460   -1.41010    1.42000  # c,oc,c1,hc
dihedral_coeff	17 mbt    0.00000    0.00000    0.00000    1.37680  # c,oc,cp,cp
dihedral_coeff	18 mbt   -5.92880   -2.70070   -0.31750    1.42000  # c1,c,oc,c1
dihedral_coeff	19 mbt    0.00000    0.00000    0.00000    1.42000  # c1,c,oc,cp
dihedral_coeff	20 mbt    0.00000    0.00000    0.00000    1.42000  # c1,c,oh,h
dihedral_coeff	21 mbt   -6.80070   -4.65460   -1.41010    1.42000  # c1,oc,c,hc
dihedral_coeff	22 mbt    0.00000    0.00000    0.00000    1.42000  # c3h,c,oc,cp
dihedral_coeff	23 mbt   -6.80070   -4.65460   -1.41010    1.42000  # c3h,o3e,c,hc
dihedral_coeff	24 mbt    0.00000    0.00000    0.00000    1.50100  # cp,c,cp,cp
dihedral_coeff	25 mbt   -5.56790    1.40830    0.30100    1.50100  # cp,cp,c,hc
dihedral_coeff	26 mbt   27.59890   -2.31200    0.00000    1.41700  # cp,cp,cp,cp
dihedral_coeff	27 mbt    0.00000   -1.15210    0.00000    1.41700  # cp,cp,cp,hc
dihedral_coeff	28 mbt    0.00000    4.82550    0.00000    1.41700  # cp,cp,cp,oc
dihedral_coeff	29 mbt    0.00000    0.00000    0.00000    1.42000  # cp,oc,c,hc
dihedral_coeff	30 mbt    0.00000    0.00000    0.00000    1.42000  # h,oh,c,hc
dihedral_coeff	31 mbt  -14.26100   -0.53220   -0.48640    1.53000  # hc,c,c,hc
dihedral_coeff	32 mbt  -16.79750   -1.22960   -0.27500    1.53000  # hc,c,c,oc
dihedral_coeff	33 mbt  -14.26100   -0.53220   -0.48640    1.53000  # hc,c,c1,hc
dihedral_coeff	34 mbt  -16.79750   -1.22960   -0.27500    1.53000  # hc,c,c1,oc
dihedral_coeff	35 mbt  -14.26100   -0.53220   -0.48640    1.53000  # hc,c,c3h,hc
dihedral_coeff	36 mbt  -16.79750   -1.22960   -0.27500    1.53000  # hc,c,c3h,o3e
dihedral_coeff	37 mbt  -16.79750   -1.22960   -0.27500    1.53000  # hc,c1,c,oc
dihedral_coeff	38 mbt  -16.79750   -1.22960   -0.27500    1.53000  # hc,c1,c,oh
dihedral_coeff	39 mbt  -16.79750   -1.22960   -0.27500    1.53000  # hc,c3h,c,o3e
dihedral_coeff	40 mbt  -16.79750   -1.22960   -0.27500    1.53000  # hc,c3h,c,oc
dihedral_coeff	41 mbt    0.00000    4.82280    0.00000    1.41700  # hc,cp,cp,hc
dihedral_coeff	42 mbt    0.00000    5.54320    0.00000    1.41700  # hc,cp,cp,oc
dihedral_coeff	43 mbt  -17.25850   -3.61570   -0.83640    1.53000  # o3e,c3h,c,oc
dihedral_coeff	44 mbt  -17.25850   -3.61570   -0.83640    1.53000  # oc,c,c1,oc
dihedral_coeff	45 mbt  -17.25850   -3.61570   -0.83640    1.53000  # oc,c1,c,oh

# EndBondTorsion Coeffs

dihedral_coeff	 1 ebt    0.24860    0.24220   -0.09250    0.08140    0.05910    0.22190    1.53000    1.10100  # c,c,c,hc
dihedral_coeff	 2 ebt    1.15380    0.84090   -0.91380   -0.31900    0.44110   -0.71740    1.53000    1.42000  # c,c,c,oc
dihedral_coeff	 3 ebt   -0.24560    1.05170   -0.77950    0.47410    1.26350    0.55760    1.53000    1.42000  # c,c,oc,c1
dihedral_coeff	 4 ebt    0.00000    0.00000    0.00000    0.00000    0.00000    0.00000    1.53000    1.37680  # c,c,oc,cp
dihedral_coeff	 5 ebt    0.24860    0.24220   -0.09250    0.08140    0.05910    0.22190    1.53000    1.10100  # c,c1,c,hc
dihedral_coeff	 6 ebt    1.15380    0.84090   -0.91380   -0.31900    0.44110   -0.71740    1.53000    1.42000  # c,c1,c,oc
dihedral_coeff	 7 ebt   -0.31900    0.44110   -0.71740    1.15380    0.84090   -0.91380    1.53000    1.42000  # c,c1,c,oh
dihedral_coeff	 8 ebt    0.47410    1.26350    0.55760   -0.24560    1.05170   -0.77950    1.53000    1.42000  # c,c1,oc,c
dihedral_coeff	 9 ebt    0.24860    0.24220   -0.09250    0.08140    0.05910    0.22190    1.53000    1.10100  # c,c3h,c,hc
dihedral_coeff	10 ebt   -0.31900    0.44110   -0.71740    1.15380    0.84090   -0.91380    1.53000    1.42000  # c,c3h,c,o3e
dihedral_coeff	11 ebt    1.15380    0.84090   -0.91380   -0.31900    0.44110   -0.71740    1.53000    1.42000  # c,c3h,c,oc
dihedral_coeff	12 ebt   -0.24560    1.05170   -0.77950    0.47410    1.26350    0.55760    1.53000    1.42000  # c,c3h,o3e,c
dihedral_coeff	13 ebt    0.00000   -0.69180    0.00000    0.00000    0.24210    0.00000    1.50100    1.41700  # c,cp,cp,cp
dihedral_coeff	14 ebt    0.00000   -1.79700    0.00000    0.00000   -0.48790    0.00000    1.50100    1.09820  # c,cp,cp,hc
dihedral_coeff	15 ebt   -0.16200    0.15640   -1.14080   -0.60540    1.33390    0.96480    1.42000    1.10100  # c,o3e,c3h,hc
dihedral_coeff	16 ebt   -0.16200    0.15640   -1.14080   -0.60540    1.33390    0.96480    1.42000    1.10100  # c,oc,c1,hc
dihedral_coeff	17 ebt    0.00000    0.00000    0.00000    0.00000    0.00000    0.00000    1.42000    1.41700  # c,oc,cp,cp
dihedral_coeff	18 ebt    0.47410    1.26350    0.55760   -0.24560    1.05170   -0.77950    1.53000    1.42000  # c1,c,oc,c1
dihedral_coeff	19 ebt    0.00000    0.00000    0.00000    0.00000    0.00000    0.00000    1.53000    1.37680  # c1,c,oc,cp
dihedral_coeff	20 ebt    0.00000    0.00000    0.00000    0.00000    0.00000    0.00000    1.53000    0.96000  # c1,c,oh,h
dihedral_coeff	21 ebt   -0.60540    1.33390    0.96480   -0.16200    0.15640   -1.14080    1.42000    1.10100  # c1,oc,c,hc
dihedral_coeff	22 ebt    0.00000    0.00000    0.00000    0.00000    0.00000    0.00000    1.53000    1.37680  # c3h,c,oc,cp
dihedral_coeff	23 ebt   -0.60540    1.33390    0.96480   -0.16200    0.15640   -1.14080    1.42000    1.10100  # c3h,o3e,c,hc
dihedral_coeff	24 ebt    0.00000    0.00000    0.00000    0.00000    0.00000    0.00000    1.50100    1.41700  # cp,c,cp,cp
dihedral_coeff	25 ebt   -0.58350    1.12200    0.39780    1.39970    0.77560    0.00000    1.41700    1.10100  # cp,cp,c,hc
dihedral_coeff	26 ebt   -0.11850    6.32040    0.00000   -0.11850    6.32040    0.00000    1.41700    1.41700  # cp,cp,cp,cp
dihedral_coeff	27 ebt    0.00000   -6.89580    0.00000    0.00000   -0.46690    0.00000    1.41700    1.09820  # cp,cp,cp,hc
dihedral_coeff	28 ebt    0.00000    0.26550    0.00000    0.00000    4.89050    0.00000    1.41700    1.37680  # cp,cp,cp,oc
dihedral_coeff	29 ebt    0.00000    0.00000    0.00000    0.00000    0.00000    0.00000    1.37680    1.10100  # cp,oc,c,hc
dihedral_coeff	30 ebt    0.00000    0.00000    0.00000    0.00000    0.00000    0.00000    0.96000    1.10100  # h,oh,c,hc
dihedral_coeff	31 ebt    0.21300    0.31200    0.07770    0.21300    0.31200    0.07770    1.10100    1.10100  # hc,c,c,hc
dihedral_coeff	32 ebt    0.59030    0.66690    0.85840    0.96810    0.95510    0.04360    1.10100    1.42000  # hc,c,c,oc
dihedral_coeff	33 ebt    0.21300    0.31200    0.07770    0.21300    0.31200    0.07770    1.10100    1.10100  # hc,c,c1,hc
dihedral_coeff	34 ebt    0.59030    0.66690    0.85840    0.96810    0.95510    0.04360    1.10100    1.42000  # hc,c,c1,oc
dihedral_coeff	35 ebt    0.21300    0.31200    0.07770    0.21300    0.31200    0.07770    1.10100    1.10100  # hc,c,c3h,hc
dihedral_coeff	36 ebt    0.96810    0.95510    0.04360    0.59030    0.66690    0.85840    1.10100    1.42000  # hc,c,c3h,o3e
dihedral_coeff	37 ebt    0.59030    0.66690    0.85840    0.96810    0.95510    0.04360    1.10100    1.42000  # hc,c1,c,oc
dihedral_coeff	38 ebt    0.96810    0.95510    0.04360    0.59030    0.66690    0.85840    1.10100    1.42000  # hc,c1,c,oh
dihedral_coeff	39 ebt    0.96810    0.95510    0.04360    0.59030    0.66690    0.85840    1.10100    1.42000  # hc,c3h,c,o3e
dihedral_coeff	40 ebt    0.59030    0.66690    0.85840    0.96810    0.95510    0.04360    1.10100    1.42000  # hc,c3h,c,oc
dihedral_coeff	41 ebt    0.00000   -0.68900    0.00000    0.00000   -0.68900    0.00000    1.09820    1.09820  # hc,cp,cp,hc
dihedral_coeff	42 ebt    0.00000    4.26410    0.00000    0.00000   -1.58670    0.00000    1.09820    1.37680  # hc,cp,cp,oc
dihedral_coeff	43 ebt    1.01650    0.75530   -0.46090    1.01650    0.75530   -0.46090    1.42000    1.42000  # o3e,c3h,c,oc
dihedral_coeff	44 ebt    1.01650    0.75530   -0.46090    1.01650    0.75530   -0.46090    1.42000    1.42000  # oc,c,c1,oc
dihedral_coeff	45 ebt    1.01650    0.75530   -0.46090    1.01650    0.75530   -0.46090    1.42000    1.42000  # oc,c1,c,oh

# AngleTorsion Coeffs

dihedral_coeff	 1 at   -0.24540    0.00000   -0.11360    0.31130    0.45160   -0.19880  112.67000  110.77000  # c,c,c,hc
dihedral_coeff	 2 at    0.96720   -0.75660   -1.23310    0.56230   -0.30410   -0.40150  112.67000  111.27000  # c,c,c,oc
dihedral_coeff	 3 at   -2.74660    1.48770   -0.89550    0.56760    0.94500    0.07030  111.27000  104.50000  # c,c,oc,c1
dihedral_coeff	 4 at    0.00000    0.00000    0.00000    0.00000    0.00000    0.00000  111.27000  102.96950  # c,c,oc,cp
dihedral_coeff	 5 at   -0.24540    0.00000   -0.11360    0.31130    0.45160   -0.19880  112.67000  110.77000  # c,c1,c,hc
dihedral_coeff	 6 at    0.96720   -0.75660   -1.23310    0.56230   -0.30410   -0.40150  112.67000  111.27000  # c,c1,c,oc
dihedral_coeff	 7 at    0.56230   -0.30410   -0.40150    0.96720   -0.75660   -1.23310  112.67000  111.27000  # c,c1,c,oh
dihedral_coeff	 8 at    0.56760    0.94500    0.07030   -2.74660    1.48770   -0.89550  111.27000  104.50000  # c,c1,oc,c
dihedral_coeff	 9 at   -0.24540    0.00000   -0.11360    0.31130    0.45160   -0.19880  112.67000  110.77000  # c,c3h,c,hc
dihedral_coeff	10 at    0.56230   -0.30410   -0.40150    0.96720   -0.75660   -1.23310  112.67000  111.27000  # c,c3h,c,o3e
dihedral_coeff	11 at    0.96720   -0.75660   -1.23310    0.56230   -0.30410   -0.40150  112.67000  111.27000  # c,c3h,c,oc
dihedral_coeff	12 at   -2.74660    1.48770   -0.89550    0.56760    0.94500    0.07030  111.27000  104.50000  # c,c3h,o3e,c
dihedral_coeff	13 at    0.00000    3.89870    0.00000    0.00000   -4.46830    0.00000  120.05000  118.90000  # c,cp,cp,cp
dihedral_coeff	14 at    0.00000   -0.12420    0.00000    0.00000    3.46010    0.00000  120.05000  117.94000  # c,cp,cp,hc
dihedral_coeff	15 at   -0.77770    0.43400   -0.66530   -1.82340    1.63930    0.51440  104.50000  108.72800  # c,o3e,c3h,hc
dihedral_coeff	16 at   -0.77770    0.43400   -0.66530   -1.82340    1.63930    0.51440  104.50000  108.72800  # c,oc,c1,hc
dihedral_coeff	17 at    0.00000    0.00000    0.00000    0.00000    0.00000    0.00000  102.96950  123.42000  # c,oc,cp,cp
dihedral_coeff	18 at    0.56760    0.94500    0.07030   -2.74660    1.48770   -0.89550  111.27000  104.50000  # c1,c,oc,c1
dihedral_coeff	19 at    0.00000    0.00000    0.00000    0.00000    0.00000    0.00000  111.27000  102.96950  # c1,c,oc,cp
dihedral_coeff	20 at    0.00000    0.00000    0.00000    0.00000    0.00000    0.00000  111.27000  109.00000  # c1,c,oh,h
dihedral_coeff	21 at   -1.82340    1.63930    0.51440   -0.77770    0.43400   -0.66530  104.50000  108.72800  # c1,oc,c,hc
dihedral_coeff	22 at    0.00000    0.00000    0.00000    0.00000    0.00000    0.00000  111.27000  102.96950  # c3h,c,oc,cp
dihedral_coeff	23 at   -1.82340    1.63930    0.51440   -0.77770    0.43400   -0.66530  104.50000  108.72800  # c3h,o3e,c,hc
dihedral_coeff	24 at    0.00000    0.00000    0.00000    0.00000    0.00000    0.00000  111.00000  120.05000  # cp,c,cp,cp
dihedral_coeff	25 at    0.22510    0.65480    0.12370    4.62660    0.16320    0.04610  120.05000  111.00000  # cp,cp,c,hc
dihedral_coeff	26 at    1.97670    1.02390    0.00000    1.97670    1.02390    0.00000  118.90000  118.90000  # cp,cp,cp,cp
dihedral_coeff	27 at    0.00000    2.50140    0.00000    0.00000    2.71470    0.00000  118.90000  117.94000  # cp,cp,cp,hc
dihedral_coeff	28 at    0.00000   10.01550    0.00000    0.00000    1.74040    0.00000  118.90000  123.42000  # cp,cp,cp,oc
dihedral_coeff	29 at    0.00000    0.00000    0.00000    0.00000    0.00000    0.00000  102.96950  108.72800  # cp,oc,c,hc
dihedral_coeff	30 at    0.00000    0.00000    0.00000    0.00000    0.00000    0.00000  109.00000  108.72800  # h,oh,c,hc
dihedral_coeff	31 at   -0.80850    0.55690   -0.24660   -0.80850    0.55690   -0.24660  110.77000  110.77000  # hc,c,c,hc
dihedral_coeff	32 at   -0.18920    0.49180    0.72730    2.36680    2.49200   -1.01220  110.77000  111.27000  # hc,c,c,oc
dihedral_coeff	33 at   -0.80850    0.55690   -0.24660   -0.80850    0.55690   -0.24660  110.77000  110.77000  # hc,c,c1,hc
dihedral_coeff	34 at   -0.18920    0.49180    0.72730    2.36680    2.49200   -1.01220  110.77000  111.27000  # hc,c,c1,oc
dihedral_coeff	35 at   -0.80850    0.55690   -0.24660   -0.80850    0.55690   -0.24660  110.77000  110.77000  # hc,c,c3h,hc
dihedral_coeff	36 at    2.36680    2.49200   -1.01220   -0.18920    0.49180    0.72730  110.77000  111.27000  # hc,c,c3h,o3e
dihedral_coeff	37 at   -0.18920    0.49180    0.72730    2.36680    2.49200   -1.01220  110.77000  111.27000  # hc,c1,c,oc
dihedral_coeff	38 at    2.36680    2.49200   -1.01220   -0.18920    0.49180    0.72730  110.77000  111.27000  # hc,c1,c,oh
dihedral_coeff	39 at    2.36680    2.49200   -1.01220   -0.18920    0.49180    0.72730  110.77000  111.27000  # hc,c3h,c,o3e
dihedral_coeff	40 at   -0.18920    0.49180    0.72730    2.36680    2.49200   -1.01220  110.77000  111.27000  # hc,c3h,c,oc
dihedral_coeff	41 at    0.00000    2.45010    0.00000    0.00000    2.45010    0.00000  117.94000  117.94000  # hc,cp,cp,hc
dihedral_coeff	42 at    0.00000    2.57060    0.00000    0.00000    1.87290    0.00000  117.94000  123.42000  # hc,cp,cp,oc
dihedral_coeff	43 at    0.55110    0.97370   -0.66730    0.55110    0.97370   -0.66730  111.27000  111.27000  # o3e,c3h,c,oc
dihedral_coeff	44 at    0.55110    0.97370   -0.66730    0.55110    0.97370   -0.66730  111.27000  111.27000  # oc,c,c1,oc
dihedral_coeff	45 at    0.55110    0.97370   -0.66730    0.55110    0.97370   -0.66730  111.27000  111.27000  # oc,c1,c,oh

# AngleAngleTorsion Coeffs

dihedral_coeff	 1 aat  -16.16400  112.67000  110.77000  # c,c,c,hc
dihedral_coeff	 2 aat  -29.04200  112.67000  111.27000  # c,c,c,oc
dihedral_coeff	 3 aat  -19.00590  111.27000  104.50000  # c,c,oc,c1
dihedral_coeff	 4 aat    0.00000  111.27000  102.96950  # c,c,oc,cp
dihedral_coeff	 5 aat  -16.16400  112.67000  110.77000  # c,c1,c,hc
dihedral_coeff	 6 aat  -29.04200  112.67000  111.27000  # c,c1,c,oc
dihedral_coeff	 7 aat  -29.04200  112.67000  111.27000  # c,c1,c,oh
dihedral_coeff	 8 aat  -19.00590  111.27000  104.50000  # c,c1,oc,c
dihedral_coeff	 9 aat  -16.16400  112.67000  110.77000  # c,c3h,c,hc
dihedral_coeff	10 aat  -29.04200  112.67000  111.27000  # c,c3h,c,o3e
dihedral_coeff	11 aat  -29.04200  112.67000  111.27000  # c,c3h,c,oc
dihedral_coeff	12 aat  -19.00590  111.27000  104.50000  # c,c3h,o3e,c
dihedral_coeff	13 aat  -14.40970  120.05000  118.90000  # c,cp,cp,cp
dihedral_coeff	14 aat    4.44440  120.05000  117.94000  # c,cp,cp,hc
dihedral_coeff	15 aat  -16.44380  104.50000  108.72800  # c,o3e,c3h,hc
dihedral_coeff	16 aat  -16.44380  104.50000  108.72800  # c,oc,c1,hc
dihedral_coeff	17 aat    0.00000  102.96950  123.42000  # c,oc,cp,cp
dihedral_coeff	18 aat  -19.00590  111.27000  104.50000  # c1,c,oc,c1
dihedral_coeff	19 aat    0.00000  111.27000  102.96950  # c1,c,oc,cp
dihedral_coeff	20 aat    0.00000  111.27000  109.00000  # c1,c,oh,h
dihedral_coeff	21 aat  -16.44380  104.50000  108.72800  # c1,oc,c,hc
dihedral_coeff	22 aat    0.00000  111.27000  102.96950  # c3h,c,oc,cp
dihedral_coeff	23 aat  -16.44380  104.50000  108.72800  # c3h,o3e,c,hc
dihedral_coeff	24 aat    0.00000  111.00000  120.05000  # cp,c,cp,cp
dihedral_coeff	25 aat   -5.88880  120.05000  111.00000  # cp,cp,c,hc
dihedral_coeff	26 aat    0.00000  118.90000  118.90000  # cp,cp,cp,cp
dihedral_coeff	27 aat   -4.81410  118.90000  117.94000  # cp,cp,cp,hc
dihedral_coeff	28 aat  -21.02470  118.90000  123.42000  # cp,cp,cp,oc
dihedral_coeff	29 aat    0.00000  102.96950  108.72800  # cp,oc,c,hc
dihedral_coeff	30 aat    0.00000  109.00000  108.72800  # h,oh,c,hc
dihedral_coeff	31 aat  -12.56400  110.77000  110.77000  # hc,c,c,hc
dihedral_coeff	32 aat  -20.20060  110.77000  111.27000  # hc,c,c,oc
dihedral_coeff	33 aat  -12.56400  110.77000  110.77000  # hc,c,c1,hc
dihedral_coeff	34 aat  -20.20060  110.77000  111.27000  # hc,c,c1,oc
dihedral_coeff	35 aat  -12.56400  110.77000  110.77000  # hc,c,c3h,hc
dihedral_coeff	36 aat  -20.20060  110.77000  111.27000  # hc,c,c3h,o3e
dihedral_coeff	37 aat  -20.20060  110.77000  111.27000  # hc,c1,c,oc
dihedral_coeff	38 aat  -20.20060  110.77000  111.27000  # hc,c1,c,oh
dihedral_coeff	39 aat  -20.20060  110.77000  111.27000  # hc,c3h,c,o3e
dihedral_coeff	40 aat  -20.20060  110.77000  111.27000  # hc,c3h,c,oc
dihedral_coeff	41 aat    0.35980  117.94000  117.94000  # hc,cp,cp,hc
dihedral_coeff	42 aat    4.22960  117.94000  123.42000  # hc,cp,cp,oc
dihedral_coeff	43 aat  -14.04840  111.27000  111.27000  # o3e,c3h,c,oc
dihedral_coeff	44 aat  -14.04840  111.27000  111.27000  # oc,c,c1,oc
dihedral_coeff	45 aat  -14.04840  111.27000  111.27000  # oc,c1,c,oh

# BondBond13 Coeffs

dihedral_coeff	 1 bb13    0.00000    1.53000    1.10100  # c,c,c,hc
dihedral_coeff	 2 bb13    0.00000    1.53000    1.42000  # c,c,c,oc
dihedral_coeff	 3 bb13    0.00000    1.53000    1.42000  # c,c,oc,c1
dihedral_coeff	 4 bb13    0.00000    1.53000    1.37680  # c,c,oc,cp
dihedral_coeff	 5 bb13    0.00000    1.53000    1.10100  # c,c1,c,hc
dihedral_coeff	 6 bb13    0.00000    1.53000    1.42000  # c,c1,c,oc
dihedral_coeff	 7 bb13    0.00000    1.53000    1.42000  # c,c1,c,oh
dihedral_coeff	 8 bb13    0.00000    1.53000    1.42000  # c,c1,oc,c
dihedral_coeff	 9 bb13    0.00000    1.53000    1.10100  # c,c3h,c,hc
dihedral_coeff	10 bb13    0.00000    1.53000    1.42000  # c,c3h,c,o3e
dihedral_coeff	11 bb13    0.00000    1.53000    1.42000  # c,c3h,c,oc
dihedral_coeff	12 bb13    0.00000    1.53000    1.42000  # c,c3h,o3e,c
dihedral_coeff	13 bb13    2.50850    1.50100    1.41700  # c,cp,cp,cp
dihedral_coeff	14 bb13    0.87430    1.50100    1.09820  # c,cp,cp,hc
dihedral_coeff	15 bb13    0.00000    1.42000    1.10100  # c,o3e,c3h,hc
dihedral_coeff	16 bb13    0.00000    1.42000    1.10100  # c,oc,c1,hc
dihedral_coeff	17 bb13    0.00000    1.42000    1.41700  # c,oc,cp,cp
dihedral_coeff	18 bb13    0.00000    1.53000    1.42000  # c1,c,oc,c1
dihedral_coeff	19 bb13    0.00000    1.53000    1.37680  # c1,c,oc,cp
dihedral_coeff	20 bb13    0.00000    1.53000    0.96000  # c1,c,oh,h
dihedral_coeff	21 bb13    0.00000    1.42000    1.10100  # c1,oc,c,hc
dihedral_coeff	22 bb13    0.00000    1.53000    1.37680  # c3h,c,oc,cp
dihedral_coeff	23 bb13    0.00000    1.42000    1.10100  # c3h,o3e,c,hc
dihedral_coeff	24 bb13    0.00000    1.50100    1.41700  # cp,c,cp,cp
dihedral_coeff	25 bb13   -3.48260    1.41700    1.10100  # cp,cp,c,hc
dihedral_coeff	26 bb13   53.00000    1.41700    1.41700  # cp,cp,cp,cp
dihedral_coeff	27 bb13   -6.27410    1.41700    1.09820  # cp,cp,cp,hc
dihedral_coeff	28 bb13   -2.24360    1.41700    1.37680  # cp,cp,cp,oc
dihedral_coeff	29 bb13    0.00000    1.37680    1.10100  # cp,oc,c,hc
dihedral_coeff	30 bb13    0.00000    0.96000    1.10100  # h,oh,c,hc
dihedral_coeff	31 bb13    0.00000    1.10100    1.10100  # hc,c,c,hc
dihedral_coeff	32 bb13    0.00000    1.10100    1.42000  # hc,c,c,oc
dihedral_coeff	33 bb13    0.00000    1.10100    1.10100  # hc,c,c1,hc
dihedral_coeff	34 bb13    0.00000    1.10100    1.42000  # hc,c,c1,oc
dihedral_coeff	35 bb13    0.00000    1.10100    1.10100  # hc,c,c3h,hc
dihedral_coeff	36 bb13    0.00000    1.10100    1.42000  # hc,c,c3h,o3e
dihedral_coeff	37 bb13    0.00000    1.10100    1.42000  # hc,c1,c,oc
dihedral_coeff	38 bb13    0.00000    1.10100    1.42000  # hc,c1,c,oh
dihedral_coeff	39 bb13    0.00000    1.10100    1.42000  # hc,c3h,c,o3e
dihedral_coeff	40 bb13    0.00000    1.10100    1.42000  # hc,c3h,c,oc
dihedral_coeff	41 bb13   -1.70770    1.09820    1.09820  # hc,cp,cp,hc
dihedral_coeff	42 bb13    2.05170    1.09820    1.37680  # hc,cp,cp,oc
dihedral_coeff	43 bb13    0.00000    1.42000    1.42000  # o3e,c3h,c,oc
dihedral_coeff	44 bb13    0.00000    1.42000    1.42000  # oc,c,c1,oc
dihedral_coeff	45 bb13    0.00000    1.42000    1.42000  # oc,c1,c,oh

# Improper Coeffs

improper_coeff	 1    0.00000    0.00000  # c,c,c,hc
improper_coeff	 2    0.00000    0.00000  # c,c,hc,hc
improper_coeff	 3    0.00000    0.00000  # c,c,hc,oc
improper_coeff	 4    0.00000    0.00000  # c,c,oc,hc
improper_coeff	 5    0.00000    0.00000  # c,c1,hc,hc
improper_coeff	 6    0.00000    0.00000  # c,c1,hc,oc
improper_coeff	 7    0.00000    0.00000  # c,c1,hc,oh
improper_coeff	 8    0.00000    0.00000  # c,c1,oc,hc
improper_coeff	 9    0.00000    0.00000  # c,c3h,hc,hc
improper_coeff	10    0.00000    0.00000  # c,c3h,hc,o3e
improper_coeff	11    0.00000    0.00000  # c,c3h,hc,oc
improper_coeff	12    0.00000    0.00000  # c,cp,cp,hc
improper_coeff	13    0.00000    0.00000  # c,cp,hc,hc
improper_coeff	14    0.00000    0.00000  # c,hc,hc,o3e
improper_coeff	15    0.00000    0.00000  # c,hc,hc,oc
improper_coeff	16    0.00000    0.00000  # c,hc,hc,oh
improper_coeff	17    0.00000    0.00000  # c1,c,c,hc
improper_coeff	18    0.00000    0.00000  # c1,c,c,oc
improper_coeff	19    0.00000    0.00000  # c1,c,oc,hc
improper_coeff	20    0.00000    0.00000  # c3h,c,c,hc
improper_coeff	21    0.00000    0.00000  # c3h,c,c,o3e
improper_coeff	22    0.00000    0.00000  # c3h,c,hc,o3e
improper_coeff	23    0.00000    0.00000  # c3h,c,o3e,hc
improper_coeff	24    7.81530    0.00000  # cp,c,cp,cp
improper_coeff	25    4.89120    0.00000  # cp,cp,cp,hc
improper_coeff	26   13.04210    0.00000  # cp,cp,cp,oc

# AngleAngle Coeffs

improper_coeff	 1 aa   -1.31990   -1.31990    0.11840  112.67000  110.77000  110.77000  # c,c,c,hc
improper_coeff	 2 aa    0.27380   -0.48250    0.27380  110.77000  110.77000  107.66000  # c,c,hc,hc
improper_coeff	 3 aa    0.00000    0.00000    0.16890  110.77000  111.27000  108.72800  # c,c,hc,oc
improper_coeff	 4 aa    0.16890    0.00000    0.00000  111.27000  110.77000  108.72800  # c,c,oc,hc
improper_coeff	 5 aa    0.00000   -0.48250    0.00000  110.77000  110.77000  107.66000  # c,c1,hc,hc
improper_coeff	 6 aa    0.00000    0.00000    0.00000  110.77000  111.27000  108.72800  # c,c1,hc,oc
improper_coeff	 7 aa    0.00000    2.59260    0.00000  110.77000  111.27000  108.72800  # c,c1,hc,oh
improper_coeff	 8 aa    0.00000    0.00000    0.00000  111.27000  110.77000  108.72800  # c,c1,oc,hc
improper_coeff	 9 aa    0.00000   -0.48250    0.00000  110.77000  110.77000  107.66000  # c,c3h,hc,hc
improper_coeff	10 aa    3.91770    2.59260    0.00000  110.77000  111.27000  108.72800  # c,c3h,hc,o3e
improper_coeff	11 aa    0.00000    0.00000    0.00000  110.77000  111.27000  108.72800  # c,c3h,hc,oc
improper_coeff	12 aa    0.00000    0.00000    0.00000  111.00000  111.00000  111.00000  # c,cp,cp,hc
improper_coeff	13 aa    2.37940    3.01180    2.37940  111.00000  111.00000  107.66000  # c,cp,hc,hc
improper_coeff	14 aa    2.42590    2.42590    2.12830  107.66000  108.72800  108.72800  # c,hc,hc,o3e
improper_coeff	15 aa    0.00000    0.00000    2.12830  107.66000  108.72800  108.72800  # c,hc,hc,oc
improper_coeff	16 aa    2.42590    2.42590    2.12830  107.66000  108.72800  108.72800  # c,hc,hc,oh
improper_coeff	17 aa   -1.31990   -1.31990    0.11840  112.67000  110.77000  110.77000  # c1,c,c,hc
improper_coeff	18 aa    0.00000    0.00000   -3.57440  112.67000  111.27000  111.27000  # c1,c,c,oc
improper_coeff	19 aa    0.16890    0.00000    0.00000  111.27000  110.77000  108.72800  # c1,c,oc,hc
improper_coeff	20 aa   -1.31990   -1.31990    0.11840  112.67000  110.77000  110.77000  # c3h,c,c,hc
improper_coeff	21 aa   -0.83300   -0.83300   -3.57440  112.67000  111.27000  111.27000  # c3h,c,c,o3e
improper_coeff	22 aa    3.91770    2.59260    0.16890  110.77000  111.27000  108.72800  # c3h,c,hc,o3e
improper_coeff	23 aa    0.16890    2.59260    3.91770  111.27000  110.77000  108.72800  # c3h,c,o3e,hc
improper_coeff	24 aa    0.00000    0.00000    0.00000  120.05000  120.05000  118.90000  # cp,c,cp,cp
improper_coeff	25 aa    0.00000    0.00000    0.00000  118.90000  117.94000  117.94000  # cp,cp,cp,hc
improper_coeff	26 aa    0.00000    0.00000    0.00000  118.90000  123.42000  123.42000  # cp,cp,cp,oc

# ------------------------------- OPT Section -------------------------------
minimize 1.0e-5 1.0e-7 100000 400000
PPPM initialization ...
  using 12-bit tables for long-range coulomb (../kspace.cpp:342)
  G vector (1/distance) = 0.11440119
  grid = 4 4 4
  stencil order = 5
  estimated absolute RMS force accuracy = 0.28915976
  estimated relative force accuracy = 0.00087079602
  using double precision KISS FFT
  3d grid and FFT values/proc = 294 4
Generated 36 of 36 mixed pair_coeff terms from sixthpower/sixthpower mixing rule
Neighbor list info ...
  update: every = 1 steps, delay = 0 steps, check = yes
  max neighbors/atom: 2000, page size: 100000
  master list distance cutoff = 12
  ghost atom cutoff = 12
  binsize = 6, bins = 7 7 7
  1 neighbor lists, perpetual/occasional/extra = 1 0 0
  (1) pair lj/class2/coul/long, perpetual
      attributes: half, newton on
      pair build: half/bin/newton
      stencil: half/bin/3d
      bin: standard
WARNING: Inconsistent image flags (../domain.cpp:815)
  PPPM/cg optimization cutoff: 1e-05
  Total charged atoms: 95.4%
  Min/max charged atoms/proc: 92.5% 96.9%
Per MPI rank memory allocation (min/avg/max) = 16.16 | 16.17 | 16.17 Mbytes
   Step          Temp          E_pair         E_mol          TotEng         Press     
         0   582.90106     -1097.5541      15683.716      23272.011      585.37865    
       103   582.90106     -1831.9103      7567.6799      14421.619      2919.7075    
Loop time of 1.00104 on 24 procs for 103 steps with 5000 atoms

99.1% CPU use with 24 MPI tasks x no OpenMP threads

Minimization stats:
  Stopping criterion = linesearch alpha is zero
  Energy initial, next-to-last, final = 
      14586.1619941054   5735.76958189661   5735.76958189661
  Force two-norm initial, final = 3630.27 55.177784
  Force max component initial, final = 180.75482 2.4957343
  Final line search alpha, max atom move = 2.4896507e-12 6.2135066e-12
  Iterations, force evaluations = 103 266

MPI task timing breakdown:
Section |  min time  |  avg time  |  max time  |%varavg| %total
---------------------------------------------------------------
Pair    | 0.5136     | 0.62578    | 0.73248    |   7.6 | 62.51
Bond    | 0.14015    | 0.16051    | 0.18249    |   2.6 | 16.03
Kspace  | 0.055189   | 0.16906    | 0.30009    |  16.5 | 16.89
Neigh   | 0.0051115  | 0.0051285  | 0.0051436  |   0.0 |  0.51
Comm    | 0.032907   | 0.033848   | 0.034966   |   0.4 |  3.38
Output  | 0          | 0          | 0          |   0.0 |  0.00
Modify  | 0          | 0          | 0          |   0.0 |  0.00
Other   |            | 0.006717   |            |       |  0.67

Nlocal:        208.333 ave         227 max         186 min
Histogram: 3 1 1 1 2 4 3 6 2 1
Nghost:        4398.96 ave        4461 max        4364 min
Histogram: 3 3 4 6 1 3 3 0 0 1
Neighs:        63809.4 ave       72884 max       53307 min
Histogram: 2 1 2 3 2 2 4 5 0 3

Total # of neighbors = 1531426
Ave neighs/atom = 306.2852
Ave special neighs/atom = 5.8564
Neighbor list builds = 2
Dangerous builds = 0
# ------------------------------- Run Section -------------------------------
#

timestep 0.25
neighbor        2.0 bin
neigh_modify    delay 0 every 1 check yes

thermo_style custom step temp pe evdwl ecoul ebond eangle edihed eimp density vol
thermo 20000

variable        Rho equal density
variable        Temp equal temp
variable        Volume equal vol
fix             fDENS all ave/time 100 100 300000 v_Temp v_Rho v_Volume file temp_vs_density.txt
fix def1 all print 100 "${Temp} ${Rho} ${Volume} " file press.dat screen no

label           loop
variable        a loop 26
variable        b equal 600-20*($a-1)
variable        b equal 600-20*(1-1)
fix             fMOM all momentum 100 linear 1 1 1 angular
fix             fNPT all npt temp $b $b $(100.0*dt) iso 1 1 $(100.0*dt)
fix             fNPT all npt temp 600 $b $(100.0*dt) iso 1 1 $(100.0*dt)
fix             fNPT all npt temp 600 600 $(100.0*dt) iso 1 1 $(100.0*dt)
fix             fNPT all npt temp 600 600 25 iso 1 1 $(100.0*dt)
fix             fNPT all npt temp 600 600 25 iso 1 1 25
run             1200000
PPPM initialization ...
  using 12-bit tables for long-range coulomb (../kspace.cpp:342)
  G vector (1/distance) = 0.11440119
  grid = 4 4 4
  stencil order = 5
  estimated absolute RMS force accuracy = 0.28915976
  estimated relative force accuracy = 0.00087079602
  using double precision KISS FFT
  3d grid and FFT values/proc = 294 4
Generated 36 of 36 mixed pair_coeff terms from sixthpower/sixthpower mixing rule
WARNING: Inconsistent image flags (../domain.cpp:815)
Per MPI rank memory allocation (min/avg/max) = 15.04 | 15.04 | 15.05 Mbytes
   Step          Temp          PotEng         E_vdwl         E_coul         E_bond        E_angle        E_dihed        E_impro        Density         Volume    
       103   582.90106      5735.7696     -1063.0375      556.00868      691.13066      9573.0532     -2664.4042     -32.099768      1.0193785      59045.154    
     20000   605.96376      14667.61      -305.03757      599.13965      3909.5027      12783.763     -1198.1336      202.71486      0.98441505     61142.258    
     40000   591.54242      14654.741     -298.79042      589.02724      3968.2281      12788.408     -1258.4587      191.40697      0.99633273     60410.902    
     60000   593.97344      14723.023     -369.54965      591.40123      3868.8688      12878.943     -1146.0562      223.99695      1.0070677      59766.945    
     80000   606.80072      14547.438     -417.10257      571.3725       3877.6734      12934.421     -1305.2868      211.50589      1.0082869      59694.673    
    100000   601.75322      14649.596     -437.22044      590.7226       3892.6635      12887.25      -1189.3194      230.63301      1.0191824      59056.516    
    120000   595.42434      14651.823     -386.53048      600.36076      4066.533       12723.796     -1222.8818      195.60739      1.0064324      59804.673    
    140000   596.63887      14563.766     -379.45983      595.08925      4033.2199      12665.192     -1217.9533      192.50732      1.019165       59057.524    
    160000   600.11309      14383.658     -471.97836      589.31441      3862.0804      12809.7       -1304.1864      222.32542      1.0364711      58071.432    
    180000   598.54042      14533.676     -412.81042      594.03425      3872.046       12835.386     -1234.2451      203.80182      1.0100409      59591.012    
    200000   596.49904      14561.553     -393.12833      569.02035      3911.8488      12917.279     -1300.2161      180.76402      1.021048       58948.61     
    220000   600.80455      14607.525     -452.55781      593.40752      3987.5835      12812.809     -1198.4325      189.15679      1.014336       59338.678    
    240000   597.66666      14570.41      -428.74731      582.36459      3815.103       12985.609     -1247.4332      187.73678      1.0206343      58972.504    
    260000   602.14824      14555.106     -439.3977       565.36072      3942.3468      12798.699     -1189.5302      202.2399       1.0288139      58503.643    
    280000   605.20544      14665.62      -304.41237      595.50488      3961.3131      12746.832     -1203.5806      193.92651      1.0107677      59548.164    
    300000   595.38374      14470.092     -438.21945      581.09027      4059.4798      12749.043     -1336.0305      179.5753       1.0221498      58885.069    
    320000   591.05813      14658.983     -410.2009       557.63667      4069.2915      12736.91      -1167.6449      196.79247      1.0349192      58158.512    
    340000   603.41434      14763.563     -445.06317      604.19435      4000.4397      12978.79      -1252.4258      201.8067       1.0202814      58992.899    
    360000   604.71417      14691.034     -445.25243      579.54368      4095.8851      12780.716     -1192.9064      198.02437      1.0247752      58734.207    
    380000   595.18599      14705.991     -447.95963      564.14215      3964.2448      13020.849     -1270.3581      198.82152      1.0309883      58380.256    
    400000   598.69818      14546.9       -466.55767      548.27569      3931.6571      12780.887     -1126.0128      202.79495      1.0288421      58502.039    
    420000   609.06756      14807.448     -437.38491      576.648        4055.8686      13072.805     -1330.7361      194.42485      1.0235113      58806.739    
    440000   595.1098       14660.366     -408.99422      611.69942      3921.0426      12937.161     -1297.9575      221.22021      1.027767       58563.231    
    460000   596.92821      14570.403     -503.07965      634.30854      3867.516       12848.82      -1141.5021      188.61697      1.0276645      58569.076    
    480000   606.84239      14502.677     -469.19009      557.64008      4059.5791      12660.371     -1178.1879      196.1266       1.0317164      58339.052    
    500000   591.70266      14796.648     -374.24483      559.07877      4027.581       12891.451     -1212.4136      230.09752      1.0119618      59477.894    
    520000   598.79329      14481.242     -476.57822      563.02615      3924.5075      12856.932     -1268.4657      207.28913      1.0280029      58549.794    
    540000   597.21011      14740.363     -444.61784      568.42719      3952.9802      12872.672     -1095.4037      211.63902      1.0251131      58714.846    
    560000   607.77262      14449.384     -425.73618      562.40939      3959.6888      12859.974     -1374.4515      192.49651      1.0357689      58110.801    
    580000   598.36687      14625.942     -338.20445      586.65555      4060.9678      12753.639     -1306.3489      194.42255      1.0123183      59456.953    
    600000   592.0658       14471.645     -377.95426      581.97427      3882.2326      12797.205     -1290.5402      203.8194       1.0161258      59234.16     
    620000   605.23069      14624.049     -332.17356      546.32369      3978.3316      12757.208     -1199.4023      199.27791      1.0116293      59497.444    
    640000   589.78813      14584.266     -435.99945      552.47899      4031.5974      12784.073     -1235.5453      213.19069      1.0301606      58427.159    
    660000   597.60235      14586.855     -411.81159      596.09502      4036.055       12759.73      -1275.9391      207.44354      1.0292848      58476.877    
    680000   593.07256      14517.916     -481.06167      577.88913      3886.6564      12830.879     -1177.8036      205.33507      1.0203945      58986.363    
    700000   605.81012      14611.517     -372.97807      576.98207      4001.512       12813.614     -1285.9009      202.62291      1.024461       58752.223    
    720000   605.98151      14726.469     -386.20388      568.99814      4018.1688      12898.899     -1261.9648      213.20411      1.0146122      59322.527    
    740000   590.28331      14819.364     -399.89247      567.95779      4047.4307      12862.175     -1165.5066      231.47808      1.0227252      58851.938    
    760000   597.4548       14734.394     -412.86054      565.37096      3857.1775      12853.002     -1023.8987      217.32363      1.0085831      59677.146    
    780000   596.37586      14478.372     -353.91656      571.76214      3949.9995      12682.865     -1254.7485      205.7449       1.0169548      59185.871    
    800000   588.83732      14682.564     -411.965        588.03691      3972.094       12800.301     -1150.3035      208.99387      1.0210264      58949.854    
    820000   595.40738      14680.284     -371.24573      563.91037      4046.0412      12765.698     -1210.6095      211.47876      1.0126225      59439.089    
    840000   606.56261      14553.462     -412.37738      572.98124      3930.5335      12825.777     -1227.63        188.94033      1.0255018      58692.592    
    860000   595.8357       14621.671     -402.54352      607.6347       3904.1323      12993.615     -1353.6399      196.73996      1.0142617      59343.023    
    880000   600.82468      14419.978     -418.92513      585.10892      3842.7327      12875.197     -1340.4471      200.05218      1.015836       59251.062    
    900000   602.22186      14515.421     -455.72306      592.91568      3970.8469      12906.943     -1368.001       192.87808      1.0214887      58923.177    
    920000   597.11502      14638.933     -450.23084      588.1178       4028.9101      12772.504     -1183.4916      207.09566      1.0344565      58184.525    
    940000   596.34159      14548.84      -455.27962      541.10763      3946.2321      12804.139     -1170.4081      206.8852       1.033874       58217.307    
    960000   605.15204      14850.727     -363.41988      574.70465      3973.0913      12898.988     -1131.4407      222.82407      1.0137175      59374.885    
    980000   603.22836      14481.679     -397.04136      593.25805      3865.8506      12756.273     -1197.7163      185.61862      1.0208342      58960.952    
   1000000   608.92419      14609.733     -409.00248      578.16516      3915.4954      12885.465     -1220.2038      184.0282       1.0207273      58967.128    
   1020000   604.42403      14675.434     -431.75408      568.8351       4012.4118      12844.786     -1229.8401      235.91896      1.0306985      58396.671    
   1040000   597.63952      14486.735     -459.76793      541.21523      3963.9         12995.117     -1416.9552      188.19785      1.0276457      58570.143    
   1060000   606.40991      14618.419     -460.49235      572.41086      3971.5493      12885.349     -1222.0904      195.37552      1.0271089      58600.755    
   1080000   596.01749      14497.768     -405.70552      569.71858      3907.9791      12808.031     -1245.5163      187.29882      1.022842       58845.218    
   1100000   601.28989      14550.636     -442.23694      567.65298      3879.0681      12792.174     -1133.1129      212.36766      1.0221745      58883.644    
   1120000   613.38351      14578.971     -525.00989      553.10256      4004.2119      12879.209     -1204.5753      195.51044      1.0445228      57623.785    
   1140000   599.73453      14631.723     -549.04517      541.61621      3971.8286      12836.688     -1049.2312      204.3047       1.0386055      57952.089    
   1160000   603.10168      14751.596     -485.49846      569.5062       4075.0867      12802.365     -1101.1193      215.61008      1.0215883      58917.434    
   1180000   598.6745       14777.576     -373.36098      584.58026      3967.7599      12847.097     -1128.5156      204.4701       1.0284819      58522.525    
   1200000   605.24938      14327.738     -488.72968      586.13096      3879.7733      12712.475     -1238.363       201.91589      1.0314356      58354.934    
   1200103   599.601        14354.612     -446.77199      589.48453      3771.1552      12841.84      -1271.1386      195.19502      1.0314671      58353.152    
Loop time of 3918.85 on 24 procs for 1200000 steps with 5000 atoms

Performance: 6.614 ns/day, 3.629 hours/ns, 306.212 timesteps/s, 1.531 Matom-step/s
99.5% CPU use with 24 MPI tasks x no OpenMP threads

MPI task timing breakdown:
Section |  min time  |  avg time  |  max time  |%varavg| %total
---------------------------------------------------------------
Pair    | 1755.7     | 1990.4     | 2413.2     | 358.5 | 50.79
Bond    | 619.82     | 674.88     | 767.07     | 136.0 | 17.22
Kspace  | 503.1      | 1019       | 1303.2     | 590.9 | 26.00
Neigh   | 56.692     | 56.828     | 56.957     |   1.5 |  1.45
Comm    | 125.59     | 129.99     | 133.84     |  21.7 |  3.32
Output  | 0.0035136  | 0.0038803  | 0.011755   |   2.6 |  0.00
Modify  | 32.938     | 35.078     | 36.378     |  18.5 |  0.90
Other   |            | 12.65      |            |       |  0.32

Nlocal:        208.333 ave         232 max         175 min
Histogram: 3 1 0 1 4 1 5 2 3 4
Nghost:        4438.88 ave        4471 max        4394 min
Histogram: 1 0 2 1 4 5 3 3 3 2
Neighs:        64678.7 ave       76959 max       49845 min
Histogram: 2 1 2 1 5 3 2 2 3 3

Total # of neighbors = 1552288
Ave neighs/atom = 310.4576
Ave special neighs/atom = 5.8564
Neighbor list builds = 19031
Dangerous builds = 0
unfix           fNPT
unfix           fMOM
next            a
jump            SELF loop
variable        a loop 26
variable        b equal 600-20*($a-1)
variable        b equal 600-20*(2-1)
fix             fMOM all momentum 100 linear 1 1 1 angular
fix             fNPT all npt temp $b $b $(100.0*dt) iso 1 1 $(100.0*dt)
fix             fNPT all npt temp 580 $b $(100.0*dt) iso 1 1 $(100.0*dt)
fix             fNPT all npt temp 580 580 $(100.0*dt) iso 1 1 $(100.0*dt)
fix             fNPT all npt temp 580 580 25 iso 1 1 $(100.0*dt)
fix             fNPT all npt temp 580 580 25 iso 1 1 25
run             1200000
PPPM initialization ...
  using 12-bit tables for long-range coulomb (../kspace.cpp:342)
  G vector (1/distance) = 0.1147302
  grid = 4 4 4
  stencil order = 5
  estimated absolute RMS force accuracy = 0.2886847
  estimated relative force accuracy = 0.0008693654
  using double precision KISS FFT
  3d grid and FFT values/proc = 294 4
Generated 36 of 36 mixed pair_coeff terms from sixthpower/sixthpower mixing rule
WARNING: Inconsistent image flags (../domain.cpp:815)
Per MPI rank memory allocation (min/avg/max) = 15.04 | 15.04 | 15.05 Mbytes
   Step          Temp          PotEng         E_vdwl         E_coul         E_bond        E_angle        E_dihed        E_impro        Density         Volume    
   1200103   599.601        14354.755     -446.77199      593.43096      3771.1552      12841.84      -1271.1386      195.19502      1.0314671      58353.152    
   1220000   576.34801      14306.908     -406.54024      592.27661      3914.3415      12661.883     -1322.3626      195.93041      1.0145317      59327.233    
   1240000   581.99116      14250.284     -452.566        582.64927      3845.372       12743.449     -1319.5932      180.11382      1.0471471      57479.374    
   1260000   573.91912      13957.146     -504.1714       550.65741      3819.3234      12619.804     -1385.8973      184.83141      1.0347366      58168.772    
   1280000   580.61226      14275.824     -488.78836      577.63513      3820.0536      12765.357     -1261.5539      191.81275      1.0363819      58076.431    
   1300000   576.56109      14176.875     -518.42333      569.74449      3836.8459      12700.238     -1268.7613      185.15952      1.028092       58544.722    
   1320000   580.99403      14168.976     -477.58115      565.99196      3820.2546      12683.212     -1297.7751      202.89149      1.0227235      58852.036    
   1340000   571.59517      14260.214     -528.16371      586.93367      3821.721       12740.806     -1245.1984      212.48431      1.0201499      59000.503    
   1360000   585.37443      14159.258     -444.01679      577.96913      3816.8144      12635.779     -1294.0549      193.97612      1.0472516      57473.636    
   1380000   576.49         14242.52      -402.91742      573.42346      3794.4388      12692.521     -1273.4003      187.72921      1.0282803      58534        
   1400000   583.88484      14118.133     -528.63194      568.45593      3746.6136      12641.336     -1181.3702      198.07615      1.0272361      58593.501    
   1420000   578.29155      14130.353     -498.66099      561.05512      3773.3224      12658.768     -1235.772       199.722        1.04202        57762.189    
   1440000   581.93658      14313.937     -486.17693      585.54224      3858.2239      12692.087     -1197.5152      190.50045      1.0286111      58515.173    
   1460000   587.7681       14306.392     -371.59726      545.53168      3878.9827      12636.217     -1269.6192      214.82156      1.0101544      59584.316    
   1480000   591.05086      14245.716     -490.32813      557.60411      3929.9815      12715.881     -1325.5836      186.37851      1.0371088      58035.722    
   1500000   574.0578       14217.724     -414.54319      554.97091      3870.0186      12549.009     -1194.3922      180.72061      1.0339244      58214.467    
   1520000   573.19598      14167.568     -500.68547      582.57446      3830.1118      12715.784     -1318.1411      185.94004      1.0243473      58758.745    
   1540000   579.75656      14352.645     -409.33268      591.53282      3781.9591      12725.863     -1210.3876      201.21272      1.0248856      58727.88     
   1560000   590.98622      14234.34      -417.49685      575.67751      3821.1771      12708.732     -1313.2976      187.12801      1.0235197      58806.252    
   1580000   571.95304      14142.951     -447.49974      567.291        3805.591       12626.052     -1262.3014      181.19472      1.0216431      58914.272    
   1600000   594.87338      14212.14      -417.55317      585.1863       3881.8982      12733.801     -1423.7696      181.90224      1.0280013      58549.887    
   1620000   581.87461      14337.464     -499.68283      580.73954      3831.2624      12747.6       -1195.9718      202.19892      1.0319984      58323.111    
   1640000   588.17095      14204.672     -501.53055      587.67822      3830.6354      12673.716     -1247.8943      189.85187      1.0414622      57793.13     
   1660000   581.11105      14051.097     -461.73689      553.33852      3711.397       12678.854     -1269.6255      166.95427      1.0365112      58069.182    
   1680000   584.78895      14377.27      -376.81167      556.51014      3886.1639      12739.907     -1283.612       183.70232      1.0283571      58529.631    
   1700000   580.57691      14068.051     -354.96497      540.62838      3704.9797      12610.263     -1292.8051      186.22737      1.0245086      58749.489    
   1720000   588.56845      14298.019     -420.84418      602.09056      3748.6636      12733.818     -1239.8154      201.54645      1.0323069      58305.681    
   1740000   565.66179      14431.201     -472.31044      577.4972       3865.0704      12926.789     -1331.0261      193.30092      1.0351335      58146.471    
   1760000   576.45063      14324.871     -519.65254      591.24624      3825.876       12783.388     -1231.1538      200.91457      1.0290991      58487.426    
   1780000   587.87395      14204.309     -517.18177      563.24604      3875.2615      12750.258     -1337.0841      198.15421      1.030592       58402.703    
   1800000   588.81255      14183.997     -539.82221      567.35171      3778.4098      12798.49      -1297.2278      204.75679      1.0368744      58048.842    
   1820000   577.82096      14353.532     -442.88806      575.66656      3953.4599      12690.057     -1285.7631      191.46083      1.0304599      58410.188    
   1840000   578.11892      14322.904     -394.59094      591.62041      3943.4533      12623.802     -1328.2245      214.31038      1.0086351      59674.067    
   1860000   575.19948      14303.107     -407.49436      600.83801      3894.988       12683.89      -1329.6748      187.42617      1.0218232      58903.886    
   1880000   586.57707      14278.932     -477.86948      559.19458      3763.3232      12773.956     -1215.041       203.72624      1.0209213      58955.923    
   1900000   573.90722      14304.698     -505.00284      593.39151      3770.502       12644.439     -1064.0829      194.15664      1.0203811      58987.138    
   1920000   592.20281      14238.314     -464.3516       596.82219      3816.4605      12704.053     -1271.7752      184.83222      1.0246246      58742.837    
   1940000   575.42862      14227.28      -489.89917      579.16692      3757.2839      12679.016     -1165.0979      194.65465      1.0326174      58288.153    
   1960000   564.8395       14410.951     -522.97973      587.31509      3886.5072      12752.823     -1171.596       207.17523      1.0356963      58114.875    
   1980000   591.08742      14271.792     -473.46833      566.61744      3827.3603      12767.395     -1272.2817      184.99302      1.024536       58747.918    
   2000000   576.50161      14299.63      -483.01664      586.8244       3972.6746      12658.262     -1293.9607      186.61613      1.0405621      57843.122    
   2020000   569.23467      14405.412     -455.94088      561.68501      3932.9076      12632.764     -1131.5383      193.74726      1.0439511      57655.344    
   2040000   584.30692      14104.872     -522.01598      578.41019      3829.9318      12655.279     -1301.4114      193.43552      1.0401902      57863.801    
   2060000   575.38172      14222.54      -579.15159      533.45396      3883.512       12745.036     -1239.3151      207.1497       1.0315446      58348.771    
   2080000   577.77862      14115.022     -582.56313      558.20282      3860.5265      12670.044     -1235.9945      172.70058      1.0431901      57697.401    
   2100000   572.24124      14150.283     -530.99037      569.58509      3835.0008      12584.353     -1190.4754      211.10652      1.0375559      58010.712    
   2120000   586.78504      14130.63      -464.34939      566.1236       3843.4908      12641.583     -1316.9983      189.63012      1.0370974      58036.362    
   2140000   568.00929      14180.667     -563.57512      609.58471      3832.3203      12644.335     -1229.3666      215.4963       1.0510201      57267.56     
   2160000   566.10927      14205.372     -566.7001       548.13999      3828.3899      12675.03      -1161.3006      209.46475      1.0379901      57986.448    
   2180000   582.80445      14149.694     -508.17478      532.92891      3823.9361      12658.166     -1219.6388      191.24039      1.048056       57429.527    
   2200000   584.71584      13976.74      -566.65136      568.20146      3816.5899      12749.532     -1453.9205      190.14843      1.045655       57561.393    
   2220000   581.5818       14264.772     -483.58794      530.60465      3766.4486      12809.419     -1234.8231      203.97551      1.0334897      58238.956    
   2240000   580.60684      14145.219     -500.86075      559.054        3875.9647      12557.939     -1202.5131      184.46307      1.0341599      58201.209    
   2260000   567.03628      14055.594     -549.69046      568.73878      3776.2926      12712.249     -1308.1874      184.81773      1.0451072      57591.566    
   2280000   572.0934       14224.028     -546.9929       567.31102      3909.7952      12733.083     -1310.6563      199.82478      1.0354055      58131.196    
   2300000   590.14182      14429.465     -487.34497      583.25574      4011.1581      12711.446     -1239.7372      179.37942      1.0213919      58928.759    
   2320000   581.8104       14193.856     -480.58206      586.97325      3868.4392      12653.228     -1294.6526      188.74352      1.0347554      58167.718    
   2340000   575.43307      14107.956     -527.41473      593.45765      3829.8792      12639.802     -1287.8603      187.05641      1.0314251      58355.529    
   2360000   579.1843       14247.943     -517.52049      557.85501      3815.1248      12800.5       -1275.3637      195.74201      1.016225       59228.381    
   2380000   579.90006      14163.589     -457.30975      608.04534      3744.625       12656.185     -1238.0333      177.42644      1.0274242      58582.77     
   2400000   571.69778      14079.604     -550.02263      568.6196       3735.855       12709.133     -1254.3479      198.33548      1.0408531      57826.95     
   2400103   581.7987       14049.938     -511.73075      572.52485      3729.8198      12736.635     -1341.0318      191.64449      1.0358422      58106.686    
Loop time of 3942.94 on 24 procs for 1200000 steps with 5000 atoms

Performance: 6.574 ns/day, 3.651 hours/ns, 304.342 timesteps/s, 1.522 Matom-step/s
99.5% CPU use with 24 MPI tasks x no OpenMP threads

MPI task timing breakdown:
Section |  min time  |  avg time  |  max time  |%varavg| %total
---------------------------------------------------------------
Pair    | 1789.6     | 2024.9     | 2445.2     | 355.9 | 51.35
Bond    | 628.81     | 673.95     | 761.59     | 127.4 | 17.09
Kspace  | 502.57     | 1011.5     | 1278.4     | 584.9 | 25.65
Neigh   | 54.493     | 54.615     | 54.742     |   1.3 |  1.39
Comm    | 126.03     | 130.22     | 134.52     |  21.7 |  3.30
Output  | 0.0061875  | 0.0065333  | 0.013509   |   1.8 |  0.00
Modify  | 32.884     | 35.068     | 36.512     |  18.8 |  0.89
Other   |            | 12.65      |            |       |  0.32

Nlocal:        208.333 ave         230 max         178 min
Histogram: 1 1 2 4 2 1 1 6 4 2
Nghost:        4444.12 ave        4480 max        4387 min
Histogram: 1 1 0 1 2 3 10 1 2 3
Neighs:          64811 ave       73448 max       51708 min
Histogram: 1 0 4 2 2 1 3 3 4 4

Total # of neighbors = 1555463
Ave neighs/atom = 311.0926
Ave special neighs/atom = 5.8564
Neighbor list builds = 18289
Dangerous builds = 0
unfix           fNPT
unfix           fMOM
next            a
jump            SELF loop
variable        a loop 26
variable        b equal 600-20*($a-1)
variable        b equal 600-20*(3-1)
fix             fMOM all momentum 100 linear 1 1 1 angular
fix             fNPT all npt temp $b $b $(100.0*dt) iso 1 1 $(100.0*dt)
fix             fNPT all npt temp 560 $b $(100.0*dt) iso 1 1 $(100.0*dt)
fix             fNPT all npt temp 560 560 $(100.0*dt) iso 1 1 $(100.0*dt)
fix             fNPT all npt temp 560 560 25 iso 1 1 $(100.0*dt)
fix             fNPT all npt temp 560 560 25 iso 1 1 25
run             1200000
PPPM initialization ...
  using 12-bit tables for long-range coulomb (../kspace.cpp:342)
  G vector (1/distance) = 0.11484845
  grid = 4 4 4
  stencil order = 5
  estimated absolute RMS force accuracy = 0.28851199
  estimated relative force accuracy = 0.00086884529
  using double precision KISS FFT
  3d grid and FFT values/proc = 294 4
Generated 36 of 36 mixed pair_coeff terms from sixthpower/sixthpower mixing rule
WARNING: Inconsistent image flags (../domain.cpp:815)
Per MPI rank memory allocation (min/avg/max) = 15.04 | 15.04 | 15.05 Mbytes
   Step          Temp          PotEng         E_vdwl         E_coul         E_bond        E_angle        E_dihed        E_impro        Density         Volume    
   2400103   581.7987       14050.004     -511.73075      573.95594      3729.8198      12736.635     -1341.0318      191.64449      1.0358422      58106.686    
   2420000   561.23465      13946.551     -553.43339      585.21423      3691.2344      12620.841     -1245.503       177.32651      1.0521293      57207.186    
   2440000   559.26036      13874.633     -563.63208      560.67881      3636.0529      12611.219     -1230.6529      191.21376      1.0483472      57413.574    
   2460000   570.22633      13911.428     -465.38763      558.23929      3728.9323      12533.353     -1308.025       193.7547       1.0418206      57773.247    
   2480000   561.28132      13962.461     -514.55297      572.28238      3723.8659      12593.46      -1283.0488      200.38721      1.0425136      57734.844    
   2500000   565.40723      13950.286     -529.45111      574.34636      3698.5766      12585.173     -1231.1281      182.34334      1.0362084      58086.155    
   2520000   555.05387      13987.895     -643.45735      573.13027      3856.0036      12671.943     -1326.6671      186.93883      1.0394097      57907.25     
   2540000   560.94565      13720.535     -528.42518      553.51731      3665.8189      12498.758     -1332.2881      193.38594      1.0356578      58117.035    
   2560000   559.00865      13839.997     -559.66988      568.3939       3722.9935      12523.729     -1268.3217      180.56828      1.0472589      57473.236    
   2580000   556.83143      13911.014     -481.53174      586.39102      3674.5696      12636.31      -1361.4919      185.55398      1.0490274      57376.347    
   2600000   569.24348      13774.716     -465.16553      581.77763      3702.9628      12506.938     -1400.8854      178.13448      1.0535059      57132.439    
   2620000   555.79129      13858.626     -554.29568      586.65391      3759.194       12652.044     -1446.741       192.09304      1.0454792      57571.072    
   2640000   558.23489      13980.637     -559.41682      578.47603      3886.6119      12583.065     -1355.9376      177.90659      1.0352455      58140.177    
   2660000   556.98493      13874.401     -481.6701       574.31932      3709.8426      12526.39      -1318.3053      193.85296      1.0460684      57538.647    
   2680000   571.30435      14011.289     -550.59441      560.02354      3762.9         12578.229     -1208.8027      199.10176      1.0274484      58581.395    
   2700000   563.18614      13951.28      -453.38365      583.77055      3713.5918      12634.596     -1376.5647      178.41495      1.0364382      58073.275    
   2720000   556.70498      13831.343     -548.58846      552.99724      3797.045       12516.081     -1346.44        189.6129       1.0393134      57912.614    
   2740000   566.72213      13912.033     -517.16584      569.33348      3677.237       12681.062     -1352.698       183.72166      1.0539219      57109.887    
   2760000   568.04492      13918.261     -568.141        584.92467      3702.1169      12578.56      -1252.1948      202.48194      1.0493448      57358.989    
   2780000   544.29675      13912.185     -524.41702      584.9469       3795.8664      12676.651     -1462.3834      170.17857      1.0514904      57241.95     
   2800000   562.96494      13944.156     -500.66597      577.55706      3726.899       12589.331     -1314.3264      195.64538      1.0415907      57786        
   2820000   556.56897      13902.952     -511.35214      575.06869      3731.014       12580.323     -1325.4581      183.62931      1.0449647      57599.419    
   2840000   554.16757      13994.496     -516.98483      621.38234      3736.6602      12647.151     -1357.8555      193.17662      1.0496405      57342.831    
   2860000   564.31598      14012.725     -394.1249       549.70562      3813.4374      12555.919     -1373.2901      190.9063       1.0535739      57128.749    
   2880000   563.63109      13929.279     -579.12636      561.26587      3747.4739      12635.68      -1285.7657      180.17496      1.0409537      57821.362    
   2900000   559.1266       13785.878     -564.82914      556.33004      3759.2942      12461.854     -1279.8872      181.98812      1.0400845      57869.68     
   2920000   564.66878      13834.329     -460.81879      601.95525      3723.6882      12467.248     -1336.0993      167.2942       1.0435942      57675.062    
   2940000   550.65732      13876.452     -476.54896      581.71828      3659.2142      12549.583     -1288.0082      179.80966      1.0364145      58074.601    
   2960000   568.13432      13876.099     -536.56837      547.99898      3760.9952      12569.267     -1319.9035      182.4383       1.0303794      58414.756    
   2980000   557.44346      14016.277     -507.71214      588.10265      3781.3262      12614.037     -1314.8163      184.4343       1.0361521      58089.307    
   3000000   562.88292      13866.485     -523.859        601.19027      3646.9796      12556.366     -1261.4731      176.71562      1.0439241      57656.834    
   3020000   569.33463      13934.059     -471.25183      565.19045      3672.2045      12687.577     -1385.4328      195.15073      1.0366587      58060.919    
   3040000   552.94484      13814.338     -579.33211      590.25752      3709.6519      12477.097     -1242.2396      186.9209       1.0423745      57742.547    
   3060000   557.51817      13883.915     -546.27781      574.95742      3871.7524      12431.085     -1310.5646      192.27745      1.0573489      56924.786    
   3080000   551.989        13582.895     -529.074        536.58539      3641.5676      12427.999     -1325.0589      160.32178      1.0525266      57185.595    
   3100000   560.8097       13899.269     -459.04633      573.23852      3758.2076      12588.064     -1408.7969      177.62896      1.0482721      57417.689    
   3120000   561.42506      13802.465     -628.22677      572.11712      3758.8424      12546.338     -1292.9782      175.82883      1.0494534      57353.054    
   3140000   555.14114      13690.869     -594.20016      544.48812      3742.1635      12553.787     -1417.5516      192.13501      1.0567931      56954.722    
   3160000   568.45466      13922.841     -585.69478      539.04862      3763.5797      12594.51      -1239.2272      180.89006      1.0577703      56902.105    
   3180000   566.5929       13820.911     -532.81069      571.20129      3665.1793      12566.299     -1317.9371      198.18474      1.0448247      57607.138    
   3200000   557.06582      13819.224     -572.66537      558.52963      3780.4052      12577.201     -1369.7372      175.52392      1.0488549      57385.78     
   3220000   561.39338      13885.659     -585.65905      605.46862      3866.8308      12523.266     -1378.8907      183.41182      1.0519501      57216.935    
   3240000   563.20032      13868.964     -537.67211      594.25392      3717.6646      12519.37      -1275.0949      181.12655      1.0463325      57524.122    
   3260000   557.16845      13801.82      -505.66516      541.04069      3802.2887      12512.109     -1393.6981      175.31332      1.0419359      57766.853    
   3280000   556.91305      13837.332     -607.9347       587.95814      3697.5474      12637.938     -1337.3544      189.07515      1.0458976      57548.044    
   3300000   571.11538      13839.973     -549.01947      568.90919      3659.4666      12576.46      -1296.7209      209.9926       1.0368385      58050.851    
   3320000   560.45312      13805.97      -500.14674      560.80262      3682.3629      12456.954     -1253.4939      189.20283      1.0523034      57197.726    
   3340000   560.71453      13816.012     -540.00317      572.04155      3727.081       12595.989     -1387.1293      177.27142      1.046855       57495.413    
   3360000   563.02389      13763.731     -573.39016      589.73717      3751.9689      12537.483     -1407.6497      194.44054      1.0474929      57460.396    
   3380000   559.82655      13939.595     -431.18407      575.22731      3748.679       12580.155     -1400.3366      196.60279      1.018639       59088.018    
   3400000   564.9861       13913.203     -548.56611      543.49524      3812.3086      12592.936     -1337.1655      179.54027      1.0394884      57902.868    
   3420000   562.1417       13952.928     -509.63887      596.44109      3790.6275      12489.722     -1270.6857      186.71993      1.036873       58048.919    
   3440000   555.86173      13897.502     -518.69901      574.70287      3802.7586      12433.262     -1262.7305      196.32033      1.0568055      56954.056    
   3460000   562.71014      13728.634     -418.39338      603.97013      3677.4316      12403.633     -1390.0594      180.9734       1.0276096      58572.206    
   3480000   553.57642      13805.869     -494.99736      570.1448       3686.0257      12537.549     -1359.946       195.60591      1.0415652      57787.415    
   3500000   567.3841       13972.264     -533.97798      560.38668      3782.6078      12563.988     -1273.4582      200.62653      1.0418418      57772.07     
   3520000   560.04329      13793.979     -600.005        545.75944      3762.4686      12492.988     -1265.9808      189.70932      1.0449496      57600.249    
   3540000   558.57657      13965.621     -547.30725      542.72168      3736.6956      12738.913     -1361.3946      185.95805      1.0578088      56900.034    
   3560000   553.92776      13900.181     -561.15035      591.65196      3695.1988      12612.264     -1298.6971      189.81112      1.0419439      57766.412    
   3580000   551.91369      13743.76      -532.04945      536.21604      3671.0252      12654.756     -1436.8011      179.39953      1.0404715      57848.158    
   3600000   552.56615      13886.952     -568.25547      581.72422      3798.5282      12500.97      -1291.5836      194.05757      1.0435834      57675.659    
   3600103   563.50962      13732.739     -515.11177      575.41709      3622.8693      12592.06      -1398.7223      184.71259      1.041642       57783.152    
Loop time of 3922.42 on 24 procs for 1200000 steps with 5000 atoms

Performance: 6.608 ns/day, 3.632 hours/ns, 305.933 timesteps/s, 1.530 Matom-step/s
99.5% CPU use with 24 MPI tasks x no OpenMP threads

MPI task timing breakdown:
Section |  min time  |  avg time  |  max time  |%varavg| %total
---------------------------------------------------------------
[...]
  23300000   220.45426      8218.2192     -1313.0902      520.4916       1843.5863      10806.763     -2332.9237      58.926719      1.1604293      51868.18     
  23320000   216.72693      8186.9803     -1307.8646      527.35652      1847.7658      10754.32      -2320.3742      51.083522      1.1585475      51952.432    
  23340000   223.74549      8165.4248     -1362.1397      525.36416      1819.0853      10782.997     -2281.0956      46.200657      1.1618254      51805.856    
  23360000   222.01406      8213.0786     -1252.1439      520.86458      1880.8271      10616.605     -2242.6634      54.651258      1.1605142      51864.387    
  23380000   220.21356      8141.4663     -1326.982       503.42959      1866.7195      10701.908     -2279.9092      42.030045      1.1641766      51701.227    
  23400000   221.12258      8241.6419     -1339.9133      526.66943      1891.5912      10772.519     -2293.274       49.212544      1.1632014      51744.573    
  23420000   220.45201      8179.7652     -1263.2296      526.60013      1815.2969      10670.249     -2257.6439      53.437025      1.1616254      51814.777    
  23440000   218.41016      8144.926      -1306.8616      513.29442      1902.5619      10646.127     -2298.2753      53.736249      1.1664764      51599.292    
  23460000   216.96452      8198.6331     -1278.9942      523.32674      1882.0386      10681.816     -2292.8459      48.640278      1.1575595      51996.774    
  23480000   223.61025      8205.9431     -1304.9598      510.52747      1900.9575      10700.973     -2286.2028      49.91136       1.1657724      51630.454    
  23500000   224.03228      8204.9834     -1261.9972      514.33404      1822.1722      10678.173     -2233.6865      51.442933      1.1653011      51651.337    
  23520000   219.36177      8234.403      -1297.8576      525.28863      1854.1638      10726.852     -2264.1964      55.443157      1.1586206      51949.154    
  23540000   220.11439      8226.3633     -1319.9726      510.75003      1886.3673      10649.201     -2194.1159      59.385861      1.1637255      51721.268    
  23560000   220.52829      8170.5391     -1276.3138      539.73987      1861.4753      10648.83      -2288.1471      50.055971      1.1607549      51853.634    
  23580000   221.34852      8215.3948     -1291.7266      519.62347      1879.1514      10704.723     -2275.188       44.34406       1.1609385      51845.434    
  23600000   216.4632       8178.912      -1303.9963      527.72292      1831.9733      10723.897     -2287.4922      51.413456      1.1604257      51868.343    
  23620000   217.71102      8217.4519     -1318.8816      518.59         1901.1125      10712.778     -2291.0527      59.554184      1.1647316      51676.592    
  23640000   222.91861      8198.3832     -1276.824       503.60687      1885.7057      10683.949     -2283.5569      50.30934       1.1684035      51514.19     
  23660000   216.81113      8164.8426     -1282.8057      521.76428      1861.2219      10706.442     -2328.5416      51.659104      1.163429       51734.449    
  23680000   220.77291      8152.1939     -1322.0176      536.34491      1883.5908      10631.737     -2259.7806      47.379971      1.1665542      51595.851    
  23700000   218.46704      8187.7685     -1294.4381      527.96127      1898.4914      10682.863     -2310.7581      48.676799      1.1678315      51539.419    
  23720000   218.77116      8208.59       -1311.7026      539.75684      1826.7702      10702.007     -2233.242       49.259509      1.1568116      52030.389    
  23740000   219.98149      8218.7318     -1320.3191      537.77047      1855.7505      10731.775     -2276.4453      55.482255      1.1587391      51943.838    
  23760000   218.5606       8190.6085     -1310.6192      535.29378      1832.9441      10689.536     -2236.2221      44.38394       1.160699       51856.131    
  23780000   220.26021      8209.334      -1268.8511      525.60888      1842.5804      10669.016     -2235.0356      40.757589      1.1605697      51861.909    
  23800000   219.73202      8140.6147     -1308.7891      534.58641      1857.373       10696.427     -2321.9468      48.134557      1.1549304      52115.14     
  23820000   220.00434      8213.8514     -1280.576       539.37915      1849.2841      10727.574     -2316.2975      59.88592       1.166586       51594.445    
  23840000   217.72254      8190.2239     -1303.8545      527.91373      1839.4577      10707.803     -2267.3317      50.822266      1.1648083      51673.189    
  23860000   216.72675      8231.7847     -1314.5321      531.2624       1878.6102      10721.954     -2273.2971      53.048586      1.1618356      51805.402    
  23880000   222.28782      8229.9463     -1241.2378      516.63024      1848.4641      10736.029     -2316.4218      51.531962      1.1588896      51937.094    
  23900000   219.89093      8168.672      -1287.8945      512.21891      1832.9436      10733.258     -2307.4571      50.454891      1.1617931      51807.297    
  23920000   217.3878       8263.2756     -1282.2883      533.45016      1817.0028      10699.86      -2193.3487      53.343277      1.1560955      52062.618    
  23940000   221.36037      8206.5932     -1336.5406      519.57235      1859.8168      10722.78      -2247.5975      53.443202      1.1548419      52119.131    
  23960000   218.69471      8213.2479     -1293.6713      522.17306      1904.0704      10691.399     -2302.8464      57.337375      1.1590113      51931.642    
  23980000   220.66403      8180.9615     -1288.589       510.72676      1852.2625      10715.062     -2293.4257      49.570724      1.158148       51970.352    
  24000000   220.9761       8263.3651     -1276.851       522.48058      1911.2886      10738.604     -2318.4088      51.311147      1.1577563      51987.933    
  24000103   220.64352      8215.4659     -1291.7841      520.55685      1854.739       10743.132     -2303.0766      56.817476      1.1598779      51892.841    
Loop time of 4030.11 on 24 procs for 1200000 steps with 5000 atoms

Performance: 6.432 ns/day, 3.732 hours/ns, 297.758 timesteps/s, 1.489 Matom-step/s
99.5% CPU use with 24 MPI tasks x no OpenMP threads

MPI task timing breakdown:
Section |  min time  |  avg time  |  max time  |%varavg| %total
---------------------------------------------------------------
Pair    | 2049.2     | 2297.1     | 2586.5     | 314.3 | 57.00
Bond    | 622.08     | 666.93     | 721.91     | 109.0 | 16.55
Kspace  | 534.53     | 863.92     | 1152.3     | 570.2 | 21.44
Neigh   | 17.632     | 17.693     | 17.75      |   1.1 |  0.44
Comm    | 131.04     | 135.53     | 139.62     |  22.4 |  3.36
Output  | 0.0033405  | 0.0036828  | 0.011188   |   2.6 |  0.00
Modify  | 33.622     | 36.012     | 37.146     |  18.0 |  0.89
Other   |            | 12.88      |            |       |  0.32

Nlocal:        208.333 ave         221 max         195 min
Histogram: 1 2 3 4 2 3 2 0 5 2
Nghost:        4751.21 ave        4790 max        4710 min
Histogram: 1 2 2 4 3 3 1 3 3 2
Neighs:        72326.2 ave       81865 max       63070 min
Histogram: 2 3 1 4 2 2 3 4 2 1

Total # of neighbors = 1735830
Ave neighs/atom = 347.166
Ave special neighs/atom = 5.8564
Neighbor list builds = 5863
Dangerous builds = 0
unfix           fNPT
unfix           fMOM
next            a
jump            SELF loop
variable        a loop 26
variable        b equal 600-20*($a-1)
variable        b equal 600-20*(21-1)
fix             fMOM all momentum 100 linear 1 1 1 angular
fix             fNPT all npt temp $b $b $(100.0*dt) iso 1 1 $(100.0*dt)
fix             fNPT all npt temp 200 $b $(100.0*dt) iso 1 1 $(100.0*dt)
fix             fNPT all npt temp 200 200 $(100.0*dt) iso 1 1 $(100.0*dt)
fix             fNPT all npt temp 200 200 25 iso 1 1 $(100.0*dt)
fix             fNPT all npt temp 200 200 25 iso 1 1 25
run             1200000
PPPM initialization ...
  using 12-bit tables for long-range coulomb (../kspace.cpp:342)
  G vector (1/distance) = 0.11803192
  grid = 4 4 4
  stencil order = 5
  estimated absolute RMS force accuracy = 0.28348236
  estimated relative force accuracy = 0.00085369872
  using double precision KISS FFT
  3d grid and FFT values/proc = 294 4
Generated 36 of 36 mixed pair_coeff terms from sixthpower/sixthpower mixing rule
WARNING: Inconsistent image flags (../domain.cpp:815)
Per MPI rank memory allocation (min/avg/max) = 15.04 | 15.05 | 15.05 Mbytes
   Step          Temp          PotEng         E_vdwl         E_coul         E_bond        E_angle        E_dihed        E_impro        Density         Volume    
  24000103   220.64352      8215.5576     -1291.7841      522.4604       1854.739       10743.132     -2303.0766      56.817476      1.1598779      51892.841    
  24020000   197.00582      7865.782      -1311.713       521.50539      1687.0979      10575.775     -2286.1299      46.026996      1.1670824      51572.501    
  24040000   200.15293      7948.7383     -1345.5456      520.86269      1771.5395      10605.009     -2285.008       48.100513      1.1604167      51868.744    
  24060000   197.1606       7919.3666     -1313.4926      543.69444      1746.2854      10604.464     -2343.414       48.431218      1.1633788      51736.682    
  24080000   201.34518      7910.4291     -1343.7765      518.15983      1753.7195      10553.903     -2248.5431      43.433235      1.1612634      51830.926    
  24100000   196.51456      7882.5984     -1313.7056      526.1115       1760.631       10579.117     -2348.3065      45.467393      1.1654854      51643.17     
  24120000   202.43229      7870.1406     -1326.7633      527.90311      1759.2205      10582.372     -2350.7707      44.570405      1.1672578      51564.751    
  24140000   202.25645      7875.0943     -1319.1802      535.52428      1718.1177      10616.307     -2353.0509      43.574094      1.1643692      51692.677    
  24160000   202.56157      7874.9984     -1295.1997      525.65727      1766.2732      10548.265     -2349.3979      45.430402      1.1626852      51767.544    
  24180000   201.35539      7907.7919     -1315.2914      541.12945      1766.7668      10582.641     -2346.3522      45.434848      1.171994       51356.37     
  24200000   194.06958      7865.3513     -1358.362       535.24131      1766.1565      10587.231     -2341.7872      43.27066       1.1622821      51785.501    
  24220000   199.03988      7853.0336     -1340.0391      526.93672      1802.2087      10537.694     -2355.7983      48.672104      1.1663246      51606.011    
  24240000   198.05007      7847.9832     -1360.5019      518.04559      1770.6355      10632.659     -2398.9539      52.936378      1.170303       51430.577    
  24260000   198.97828      7868.5026     -1333.0899      526.76092      1771.0299      10548.313     -2326.7731      49.014845      1.1646361      51680.83     
  24280000   204.08495      7898.819      -1296.2393      532.40987      1778.0935      10606.94      -2398.267       42.726713      1.1615291      51819.072    
  24300000   202.35251      7926.2862     -1328.6752      526.84872      1744.9225      10586.577     -2288.5725      51.949475      1.1631998      51744.642    
  24320000   199.24328      7972.5606     -1358.1751      532.48862      1784.7724      10613.372     -2279.5458      46.37612       1.1636054      51726.605    
  24340000   202.34296      7890.4058     -1320.9824      531.52972      1770.0325      10611.875     -2380.9876      46.28629       1.1658701      51626.128    
  24360000   198.96207      7885.2004     -1309.7809      513.67599      1764.4236      10589.561     -2351.3752      45.655265      1.1639181      51712.708    
  24380000   201.42416      7971.8131     -1358.6271      527.67337      1806.1675      10582.669     -2265.5315      45.920539      1.1658218      51628.267    
  24400000   203.20609      7906.1083     -1314.2954      534.47755      1745.1643      10556.205     -2292.5422      43.850057      1.1689232      51491.285    
  24420000   199.00448      7899.9193     -1307.0544      526.48675      1776.3507      10624.437     -2398.2888      45.114884      1.1678258      51539.673    
  24440000   200.87111      7858.0511     -1326.9786      541.34058      1708.9061      10574.144     -2314.5606      42.567854      1.1645896      51682.891    
  24460000   201.33916      7897.0894     -1333.8716      535.26495      1772.7734      10557.291     -2304.7046      37.333484      1.1609084      51846.775    
  24480000   201.32099      7867.3459     -1312.5248      505.61733      1704.7638      10654.048     -2365.0972      47.445953      1.1649242      51668.049    
  24500000   201.49209      7909.6604     -1314.5132      522.72089      1756.2943      10543.318     -2273.5432      42.515944      1.1626969      51767.025    
  24520000   201.84326      7899.8637     -1309.6367      519.7861       1724.0915      10638.885     -2352.4469      46.401741      1.1596016      51905.206    
  24540000   200.25626      7911.6145     -1313.4245      518.04228      1792.215       10620.862     -2386.1057      46.50207       1.1612231      51832.728    
  24560000   201.7873       7897.5421     -1332.4291      523.32832      1742.1687      10581.419     -2296.9519      47.074917      1.1675437      51552.124    
  24580000   204.47046      7857.7279     -1309.3802      534.15633      1747.1069      10572.97      -2362.2132      41.540596      1.1592878      51919.253    
  24600000   199.14602      7886.3051     -1338.2319      510.12762      1775.8954      10555.666     -2304.3402      54.128159      1.1644503      51689.074    
  24620000   204.68794      7951.0978     -1350.3303      538.43948      1736.7026      10642.677     -2277.9979      28.677016      1.1651297      51658.935    
  24640000   199.91986      7949.5364     -1290.1594      537.06526      1776.6661      10606.119     -2362.5591      48.874069      1.1657369      51632.029    
  24660000   199.86097      7811.9        -1342.4832      518.39344      1739.9253      10595.292     -2368.7349      36.337354      1.1689435      51490.393    
  24680000   199.3484       7927.9016     -1369.2429      512.64349      1725.5988      10608.887     -2226.8769      43.422717      1.1616246      51814.809    
  24700000   198.32155      7859.091      -1353.7606      514.72648      1731.1428      10618.79      -2330.1123      45.347328      1.1640924      51704.965    
  24720000   196.93438      7951.4517     -1331.4632      532.91832      1799.7785      10599.934     -2328.0398      45.345878      1.1626961      51767.059    
  24740000   199.89377      7928.0938     -1328.4279      519.79622      1703.0951      10592.458     -2235.7197      44.126083      1.165605       51637.869    
  24760000   196.74064      7854.6372     -1349.7514      524.71836      1730.9755      10624.034     -2352.3291      44.046772      1.1592284      51921.914    
  24780000   201.55809      7828.9024     -1342.9102      517.00925      1738.0834      10608.69      -2366.2371      40.661666      1.1678699      51537.726    
  24800000   202.3772       7928.0697     -1342.5799      524.07427      1746.0266      10631.738     -2309.7533      45.298113      1.166739       51587.682    
  24820000   199.83976      7863.8464     -1331.0103      519.48015      1768.9498      10555.639     -2325.5584      43.109902      1.1646443      51680.465    
  24840000   197.90346      7933.6364     -1312.0476      519.36199      1766.0644      10593.828     -2312.1339      45.30368       1.1691502      51481.287    
  24860000   201.55497      7872.2946     -1325.2249      508.28928      1715.2412      10606.048     -2312.2432      47.243988      1.1656286      51636.826    
  24880000   201.38632      7940.3171     -1305.474       522.20598      1781.1365      10574.551     -2310.2942      45.31185       1.1635552      51728.837    
  24900000   202.24443      7890.636      -1307.5495      520.88211      1761.2986      10554.047     -2310.797       39.530382      1.168493       51510.242    
  24920000   199.65124      7837.4149     -1364.4068      510.3061       1678.2297      10604.021     -2270.8361      46.197984      1.1690552      51485.47     
  24940000   202.32093      7841.6202     -1358.4732      547.27309      1702.0709      10563.015     -2287.303       41.350997      1.1698617      51449.976    
  24960000   202.11531      7920.8816     -1332.8889      524.72525      1756.6327      10609.269     -2318.5283      48.371717      1.1648458      51671.523    
  24980000   199.9555       7886.2468     -1344.906       518.83868      1731.2668      10568.672     -2266.7144      45.867922      1.1588624      51938.316    
  25000000   197.25118      7883.0861     -1330.2193      513.66796      1769.1221      10548.643     -2292.3787      41.727665      1.1637037      51722.238    
  25020000   199.24056      7893.7811     -1376.5164      512.91201      1759.7366      10649.264     -2338.3757      53.658607      1.1680492      51529.813    
  25040000   194.80398      7909.5801     -1354.6175      529.94503      1711.6008      10623.483     -2284.8979      51.01855       1.1645384      51685.165    
  25060000   197.10781      7843.8453     -1313.8109      502.09362      1761.1298      10591.264     -2370.7314      40.728234      1.1617189      51810.607    
  25080000   203.59214      7894.394      -1312.0664      533.47032      1713.0071      10590.056     -2304.5901      41.244361      1.165884       51625.514    
  25100000   198.22058      7869.7278     -1321.8615      514.85876      1733.9369      10644.005     -2373.7745      39.431719      1.1625618      51773.039    
  25120000   198.29586      7867.4135     -1332.8326      526.14318      1773.2793      10588.109     -2366.4311      45.875796      1.1652731      51652.577    
  25140000   200.72371      7857.1991     -1312.6903      517.35204      1748.518       10559.2       -2334.1901      45.800183      1.1596131      51904.689    
  25160000   198.7252       7836.3327     -1365.7683      509.36055      1683.1437      10654.375     -2318.2329      40.577106      1.1644033      51691.162    
  25180000   199.92779      7920.4987     -1308.0281      548.12117      1760.8893      10615.701     -2371.0755      41.919095      1.1639178      51712.725    
  25200000   201.10109      7956.002      -1331.8799      532.33776      1803.6183      10600.206     -2330.8897      49.559852      1.1629294      51756.673    
  25200103   200.7038       7911.2646     -1330.3326      525.71586      1792.2006      10639.413     -2399.7042      51.05134       1.1642055      51699.944    
Loop time of 4027.74 on 24 procs for 1200000 steps with 5000 atoms

Performance: 6.435 ns/day, 3.729 hours/ns, 297.934 timesteps/s, 1.490 Matom-step/s
99.5% CPU use with 24 MPI tasks x no OpenMP threads

MPI task timing breakdown:
Section |  min time  |  avg time  |  max time  |%varavg| %total
---------------------------------------------------------------
Pair    | 2024.4     | 2298.4     | 2593       | 320.8 | 57.06
Bond    | 624.78     | 666.32     | 716.84     | 111.2 | 16.54
Kspace  | 524.98     | 861.77     | 1177.7     | 585.4 | 21.40
Neigh   | 16.236     | 16.305     | 16.368     |   1.2 |  0.40
Comm    | 131.07     | 135.65     | 139.6      |  21.8 |  3.37
Output  | 0.0043442  | 0.0048918  | 0.016892   |   3.6 |  0.00
Modify  | 33.53      | 36.2       | 37.575     |  18.9 |  0.90
Other   |            | 13.07      |            |       |  0.32

Nlocal:        208.333 ave         220 max         198 min
Histogram: 2 2 2 4 2 6 1 1 2 2
Nghost:        4777.04 ave        4837 max        4738 min
Histogram: 3 2 1 7 4 3 2 1 0 1
Neighs:        72734.8 ave       81222 max       65021 min
Histogram: 2 4 2 2 3 1 3 5 0 2

Total # of neighbors = 1745635
Ave neighs/atom = 349.127
Ave special neighs/atom = 5.8564
Neighbor list builds = 5407
Dangerous builds = 0
