LAMMPS (22 Dec 2022)
Reading data file ...
  orthogonal box = (5.2946023 5.2946023 5.2946023) to (43.105545 43.105545 43.105545)
  2 by 3 by 4 MPI processor grid
  reading atoms ...
  4984 atoms
  reading velocities ...
  4984 velocities
  scanning bonds ...
  4 = max bonds/atom
  scanning angles ...
  6 = max angles/atom
  scanning dihedrals ...
  36 = max dihedrals/atom
  scanning impropers ...
  4 = max impropers/atom
  reading bonds ...
  5119 bonds
  reading angles ...
  9940 angles
  reading dihedrals ...
  13398 dihedrals
  reading impropers ...
  6248 impropers
Finding 1-2 1-3 1-4 neighbors ...
  special bond factors lj:    0        0        1       
  special bond factors coul:  0        0        1       
     4 = max # of 1-2 neighbors
    12 = max # of 1-3 neighbors
    16 = max # of special neighbors
  special bonds CPU = 0.002 seconds
  read_data CPU = 0.371 seconds
PPPM initialization ...
  using 12-bit tables for long-range coulomb (../kspace.cpp:342)
  G vector (1/distance) = 0.1168766
  grid = 4 4 4
  stencil order = 5
  estimated absolute RMS force accuracy = 0.28055991
  estimated relative force accuracy = 0.00084489784
  using double precision KISS FFT
  3d grid and FFT values/proc = 294 4
Generated 28 of 28 mixed pair_coeff terms from sixthpower/sixthpower mixing rule
Neighbor list info ...
  update: every = 1 steps, delay = 0 steps, check = yes
  max neighbors/atom: 2000, page size: 100000
  master list distance cutoff = 12
  ghost atom cutoff = 12
  binsize = 6, bins = 7 7 7
  1 neighbor lists, perpetual/occasional/extra = 1 0 0
  (1) pair lj/class2/coul/long, perpetual
      attributes: half, newton on
      pair build: half/bin/newton
      stencil: half/bin/3d
      bin: standard
Setting up cg style minimization ...
  Unit style    : real
  Current step  : 0
WARNING: Inconsistent image flags (../domain.cpp:815)
  PPPM/cg optimization cutoff: 1e-05
  Total charged atoms: 97.2%
  Min/max charged atoms/proc: 96.1% 98.2%
Per MPI rank memory allocation (min/avg/max) = 23.36 | 23.37 | 23.38 Mbytes
   Step          Temp          E_pair         E_mol          TotEng         Press     
         0   616.96875      1237.546       12719.899      23121.514      1192.6104    
        79   616.96875      505.45244      4697.8969      14367.418      4870.0515    
Loop time of 0.664331 on 24 procs for 79 steps with 4984 atoms

99.0% CPU use with 24 MPI tasks x no OpenMP threads

Minimization stats:
  Stopping criterion = energy tolerance
  Energy initial, next-to-last, final = 
      13957.4449189344   5203.38245921377   5203.34935471933
  Force two-norm initial, final = 3310.7248 497.42177
  Force max component initial, final = 151.21291 293.01012
  Final line search alpha, max atom move = 0.0035509755 1.0404718
  Iterations, force evaluations = 79 166

MPI task timing breakdown:
Section |  min time  |  avg time  |  max time  |%varavg| %total
---------------------------------------------------------------
Pair    | 0.33564    | 0.42462    | 0.47719    |   6.1 | 63.92
Bond    | 0.077384   | 0.10073    | 0.116      |   3.2 | 15.16
Kspace  | 0.044372   | 0.10818    | 0.21566    |  14.4 | 16.28
Neigh   | 0.0027639  | 0.0027758  | 0.0027822  |   0.0 |  0.42
Comm    | 0.022657   | 0.023386   | 0.024553   |   0.4 |  3.52
Output  | 0          | 0          | 0          |   0.0 |  0.00
Modify  | 0          | 0          | 0          |   0.0 |  0.00
Other   |            | 0.004643   |            |       |  0.70

Nlocal:        207.667 ave         231 max         187 min
Histogram: 1 3 5 0 3 2 6 2 1 1
Nghost:           4639 ave        4706 max        4601 min
Histogram: 3 4 4 6 1 1 3 0 1 1
Neighs:          69343 ave       77782 max       55476 min
Histogram: 2 0 3 0 2 1 4 6 4 2

Total # of neighbors = 1664233
Ave neighs/atom = 333.91513
Ave special neighs/atom = 5.9574639
Neighbor list builds = 1
Dangerous builds = 0
PPPM initialization ...
  using 12-bit tables for long-range coulomb (../kspace.cpp:342)
  G vector (1/distance) = 0.1168766
  grid = 4 4 4
  stencil order = 5
  estimated absolute RMS force accuracy = 0.28055991
  estimated relative force accuracy = 0.00084489784
  using double precision KISS FFT
  3d grid and FFT values/proc = 294 4
Generated 28 of 28 mixed pair_coeff terms from sixthpower/sixthpower mixing rule
Setting up Verlet run ...
  Unit style    : real
  Current step  : 79
  Time step     : 0.25
WARNING: Inconsistent image flags (../domain.cpp:815)
Per MPI rank memory allocation (min/avg/max) = 22.23 | 22.24 | 22.25 Mbytes
   Step          Temp          PotEng         E_vdwl         E_coul         E_bond        E_angle        E_dihed        E_impro        Density         Volume    
        79   616.96875      5203.3494     -979.51581      2811.7506      314.44969      9723.9432     -5297.7708     -42.725099      0.9438436      54057.074    
     20000   600.78784      14160.112     -120.21991      2887.3322      3759.1424      13897.007     -4870.5769     -66.169931      0.91081221     56017.5      
     40000   596.42907      13998.739     -150.23291      2818.8046      3671.1787      13934.262     -4895.0319     -51.668144      0.92384459     55227.279    
     60000   605.75199      13925.524     -203.36095      2809.2357      3693.2156      13967.619     -4962.0479     -50.75231       0.92370477     55235.639    
     80000   585.54913      13957.542     -192.33167      2859.2572      3688.0525      13872.652     -4887.3163     -54.848632      0.92407002     55213.806    
    100000   599.18468      13900.743     -148.92399      2827.7485      3581.0413      13887.056     -4858.9781     -58.875989      0.92640018     55074.928    
    120000   600.23215      13997.477     -39.700641      2842.4323      3623.9559      13862.968     -4909.3881     -56.148903      0.9176516      55599.993    
    140000   605.58635      13911.629     -148.69192      2850.2715      3703.5721      13780.398     -4883.5305     -63.097541      0.9263378      55078.637    
    160000   610.76749      14003.583     -102.19034      2840.1662      3685.9263      13791.756     -4828.929      -56.398298      0.9104735      56038.339    
    180000   605.68795      13807.407     -184.10385      2849.486       3549.8623      13819.959     -4841.7877     -59.262923      0.91357278     55848.231    
    200000   599.60119      13953.701     -185.65601      2854.7019      3795.9031      13729.693     -4859.0875     -54.30217       0.90711989     56245.512    
    220000   588.68251      14215.297     -229.94502      2863.9927      3794.6778      14016.057     -4854.2154     -49.178631      0.91780346     55590.794    
    240000   593.15097      13895.166     -185.81007      2867.5124      3686.5738      13825.952     -4907.164      -66.096001      0.90421097     56426.459    
    260000   603.37069      14098.738     -92.916763      2852.2399      3702.7414      13829.927     -4807.1036     -58.188041      0.92218921     55326.415    
    280000   600.36392      13980.935     -167.74518      2865.9738      3676.9769      13865.375     -4873.5776     -60.085187      0.92375297     55232.757    
    300000   609.62887      14169.628     -128.92703      2843.6213      3760.8266      13922.965     -4833.8366     -67.554283      0.91453338     55789.569    
    320000   600.12505      14140.007     -120.9417       2861.3176      3884.1262      13677.866     -4772.6062     -62.343139      0.90876734     56143.548    
    340000   605.97046      13919.693     -139.24385      2822.5624      3669.9568      13867.896     -4912.0759     -62.19187       0.90332915     56481.542    
    360000   598.422        13935.519     -154.16047      2847.593       3707.588       13780.474     -4856.768      -62.441034      0.90161541     56588.899    
    380000   594.28888      14288.13      -196.91595      2849.0778      3837.0948      14037.848     -4852.9596     -58.601097      0.90818147     56179.767    
    400000   601.94963      14018.57      -224.18876      2864.5995      3831.6613      13700.418     -4759.6368     -65.590035      0.92205681     55334.359    
    420000   608.85206      13964.38      -182.45429      2864.0174      3787.3606      13726.586     -4853.8185     -49.600737      0.90717423     56242.144    
    440000   592.35875      14075.95      -110.82321      2861.7576      3796.5042      13797.412     -4873.7789     -67.176741      0.91871837     55535.434    
    460000   608.99389      14152.811     -134.0714       2866.0765      3750.7981      13891.958     -4824.3755     -70.084299      0.91015915     56057.694    
    480000   603.78321      13965.294     -72.611041      2871.8642      3632.6707      13829.013     -4897.1936     -71.496078      0.90721894     56239.372    
    500000   612.93388      14117.341     -97.81256       2856.8325      3704.9406      13808.771     -4772.0227     -57.913227      0.89664949     56902.306    
    520000   598.42946      13946.5       -126.07595      2837.2872      3581.5708      13875.001     -4825.1007     -68.418244      0.90921098     56116.154    
    540000   592.21941      13912.985     -157.95222      2847.6531      3652.8211      13858.51      -4896.4782     -63.120659      0.9012231      56613.532    
    560000   590.76326      14023.218     -117.80165      2864.9624      3735.1124      13837.116     -4908.9232     -58.789588      0.90386848     56447.839    
    580000   592.06202      13814.014     -186.49866      2846.7332      3616.6513      13790.194     -4854.3711     -70.623728      0.90237589     56541.208    
    600000   600.77184      14022.531     -232.46079      2863.6377      3698.3122      13898.688     -4822.7827     -56.320316      0.90596862     56316.987    
    620000   593.13668      13976.651     -105.14203      2855.0452      3627.2956      13834.903     -4854.6567     -53.300215      0.91747642     55610.61     
    640000   602.87995      13968.339     -101.73546      2858.917       3612.5253      13815.499     -4822.3827     -65.579565      0.88694607     57524.831    
    660000   606.10448      14063.844     -217.32497      2875.0288      3751.8354      13848.929     -4805.1875     -62.275342      0.91615994     55690.519    
    680000   597.4314       14037.668     -41.383001      2849.5002      3675.3455      13765.65      -4814.0744     -69.826063      0.91727596     55622.762    
    700000   594.9304       13924.823     -95.609908      2858.1818      3704.0956      13726.062     -4878.6379     -61.218431      0.90399833     56439.731    
    720000   600.30743      14072.789     -109.64739      2867.2443      3645.1908      13856.505     -4800.8967     -58.086898      0.91771903     55595.908    
    740000   598.62152      13867.268     -206.63011      2835.4628      3705.3369      13773.01      -4837.9372     -74.656445      0.92210013     55331.76     
    760000   595.11762      13931.378     -155.50754      2853.1768      3636.0274      13734.86      -4747.6167     -62.982608      0.91447046     55793.408    
    780000   607.16515      14115.181     -98.340863      2848.5266      3821.5635      13756.992     -4817.6874     -68.022308      0.93394374     54630.082    
    800000   608.61802      14047.774     -127.04956      2828.7518      3734.4376      13816.771     -4818.4174     -58.561324      0.91389264     55828.683    
    820000   593.50734      14006.808     -229.79546      2857.1286      3802.6589      13737.366     -4764.0542     -70.150571      0.92476059     55172.575    
    840000   595.13651      13566.722     -221.35936      2860.0395      3640.8075      13644.787     -4969.2942     -59.980157      0.92156983     55363.6      
    860000   586.69608      13933.875     -277.5206       2844.0663      3753.2953      13838.756     -4832.9592     -63.92091       0.92977815     54874.835    
    880000   606.14513      13723.226     -144.66228      2865.9599      3526.508       13796.281     -4942.0133     -51.62914       0.93636749     54488.674    
    900000   599.68432      13837.986     -152.33066      2853.4923      3585.1985      13848.854     -4907.686      -63.209298      0.91068983     56025.028    
    920000   601.32802      13831.838     -149.55594      2868.5115      3672.4537      13755.472     -4934.8388     -52.120588      0.9120037      55944.316    
    940000   588.72858      13912.347     -165.76961      2862.4512      3620.736       13870.13      -4882.824      -65.393619      0.92383654     55227.76     
    960000   593.75011      13906.241     -100.08642      2885.8656      3628.6926      13805.384     -4927.5961     -58.862003      0.9157331      55716.478    
    980000   601.8166       13973.692     -178.99024      2843.3708      3781.8073      13922.87      -5004.9648     -61.606126      0.91853645     55546.433    
   1000000   608.64058      13879.932     -187.47191      2827.9813      3709.5536      13750.202     -4842.3181     -50.950536      0.93884513     54344.877    
   1020000   607.13301      13789.094     -191.61692      2851.3732      3621.8206      13769.065     -4875.188      -57.897494      0.92896931     54922.615    
   1040000   600.65972      13911.236     -231.01061      2849.9196      3786.9997      13744.486     -4843.0151     -68.092177      0.91209785     55938.541    
   1060000   598.4765       13829.67      -232.5432       2819.8105      3614.6514      13899.515     -4888.6279     -55.399135      0.92720811     55026.938    
   1080000   606.10637      14026.456     -141.16447      2859.7109      3748.7908      13806.155     -4857.2143     -62.340902      0.92479053     55170.789    
   1100000   592.19612      13830.422     -277.46875      2844.5872      3750.8718      13816.206     -4921.8693     -53.740657      0.93394405     54630.064    
   1120000   591.23478      14139.918     -140.88413      2872.2019      3771.4809      13927.584     -4900.5464     -63.695158      0.92009642     55452.257    
   1140000   605.18861      14111.307     -152.41156      2861.6267      3704.169       13891.258     -4798.9626     -65.807406      0.90762562     56214.173    
   1160000   584.86448      14117.566     -140.22166      2828.4993      3741.912       13961.168     -4874.5056     -70.967971      0.93638735     54487.519    
   1180000   592.17739      13966.832     -189.98764      2829.4307      3704.3829      13875.552     -4873.9152     -51.654362      0.92907279     54916.497    
   1200000   588.71417      13892.464     -171.95518      2853.9816      3678.5272      13734.923     -4807.6494     -68.499416      0.92993322     54865.685    
   1200079   591.07979      13948.822     -299.41537      2828.5732      3781.4264      13820.222     -4798.464      -55.801235      0.9255604      55124.898    
Loop time of 3755.96 on 24 procs for 1200000 steps with 4984 atoms

Performance: 6.901 ns/day, 3.478 hours/ns, 319.492 timesteps/s, 1.592 Matom-step/s
99.5% CPU use with 24 MPI tasks x no OpenMP threads

MPI task timing breakdown:
Section |  min time  |  avg time  |  max time  |%varavg| %total
---------------------------------------------------------------
Pair    | 1643.3     | 1993.7     | 2266.7     | 359.3 | 53.08
Bond    | 565.87     | 634.58     | 750.11     | 150.7 | 16.90
Kspace  | 583.79     | 903.73     | 1324       | 608.8 | 24.06
Neigh   | 50.558     | 50.637     | 50.699     |   0.6 |  1.35
Comm    | 123.23     | 126.45     | 129.34     |  15.0 |  3.37
Output  | 0.0030086  | 0.0037835  | 0.020832   |   5.8 |  0.00
Modify  | 31.903     | 34.159     | 35.794     |  17.8 |  0.91
Other   |            | 12.69      |            |       |  0.34

Nlocal:        207.667 ave         242 max         182 min
Histogram: 3 1 3 5 5 2 0 1 2 2
Nghost:        4587.42 ave        4660 max        4489 min
Histogram: 1 1 0 2 5 3 5 3 3 1
Neighs:        68240.6 ave       81311 max       56498 min
Histogram: 2 2 4 1 3 4 4 2 1 1

Total # of neighbors = 1637774
Ave neighs/atom = 328.60634
Ave special neighs/atom = 5.9574639
Neighbor list builds = 17360
Dangerous builds = 0
PPPM initialization ...
  using 12-bit tables for long-range coulomb (../kspace.cpp:342)
  G vector (1/distance) = 0.11632558
  grid = 4 4 4
  stencil order = 5
  estimated absolute RMS force accuracy = 0.28142235
  estimated relative force accuracy = 0.00084749505
  using double precision KISS FFT
  3d grid and FFT values/proc = 294 4
Generated 28 of 28 mixed pair_coeff terms from sixthpower/sixthpower mixing rule
Setting up Verlet run ...
  Unit style    : real
  Current step  : 1200079
  Time step     : 0.25
WARNING: Inconsistent image flags (../domain.cpp:815)
Per MPI rank memory allocation (min/avg/max) = 22.23 | 22.26 | 22.44 Mbytes
   Step          Temp          PotEng         E_vdwl         E_coul         E_bond        E_angle        E_dihed        E_impro        Density         Volume    
   1200079   591.07979      13948.547     -299.41537      2822.0563      3781.4264      13820.222     -4798.464      -55.801235      0.9255604      55124.898    
   1220000   584.37489      13649.251     -134.18692      2844.2262      3623.3267      13631.936     -4934.1342     -59.782118      0.92446423     55190.262    
   1240000   575.41156      13672.45      -257.64459      2851.6606      3557.0035      13802.302     -4899.2408     -60.120429      0.93817956     54383.431    
   1260000   590.77585      13778.461     -198.06107      2823.2397      3697.5633      13724.735     -4889.5412     -57.78701       0.92737143     55017.247    
   1280000   581.2582       13668.588     -175.96607      2841.8197      3617.6768      13736.13      -4969.772      -60.369537      0.90827877     56173.749    
   1300000   568.80464      13606.18      -144.8506       2843.8172      3594.5004      13644.458     -4940.8624     -70.314827      0.91575668     55715.043    
   1320000   575.86877      13554.1       -249.57172      2853.1484      3544.3665      13841.334     -5059.3061     -55.482214      0.93021946     54848.802    
   1340000   572.40825      13511.363     -278.80241      2855.5758      3527.3415      13763.131     -4972.6644     -61.418899      0.93218862     54732.939    
   1360000   580.50316      13804.385     -296.93646      2837.2381      3667.2355      13804.754     -4833.587      -52.604486      0.93285456     54693.867    
   1380000   582.80902      13642.245     -284.70272      2842.018       3644.588       13687.569     -4858.7138     -65.637293      0.93378969     54639.095    
   1400000   569.20665      13643.938     -258.77707      2833.9485      3568.1181      13792.018     -4906.5737     -64.658555      0.93648508     54481.832    
   1420000   586.66617      13542.125     -239.03346      2880.2703      3466.9682      13728.05      -4909.915      -64.226366      0.93057088     54828.089    
   1440000   578.95799      13540.768     -260.39206      2873.0492      3564.8584      13597.644     -4854.6023     -57.837921      0.9422246      54149.959    
   1460000   579.49791      13448.083     -299.92837      2849.4777      3551.9552      13646.655     -4918.0312     -60.537902      0.94849153     53792.176    
   1480000   584.0077       13644.67      -183.83957      2849.9568      3597.4855      13678.698     -4925.0754     -51.577895      0.93756466     54419.098    
   1500000   576.63272      13676.276     -189.39778      2815.4947      3719.0374      13534.852     -4821.7025     -60.515945      0.9457793      53946.437    
   1520000   578.75818      13457.17      -189.39396      2816.4342      3494.0045      13698.146     -4974.5049     -65.599544      0.94558967     53957.255    
   1540000   588.58457      13732.085     -203.30314      2822.9238      3657.7597      13737.481     -4897.5544     -64.270998      0.93197938     54745.228    
   1560000   590.03015      13743.451     -173.08009      2830.4808      3552.1658      13696.509     -4781.2022     -60.488979      0.91556965     55726.425    
   1580000   576.80072      13538.407     -188.25293      2880.7191      3556.7626      13537.782     -4865.1896     -61.955076      0.91429888     55803.878    
   1600000   588.84161      13712.151     -247.57303      2839.314       3554.1865      13849.219     -4901.6779     -59.124958      0.93237442     54722.032    
   1620000   576.71701      13592.832     -231.27398      2840.0877      3529.1548      13720.105     -4894.4697     -48.242882      0.93032054     54842.843    
   1640000   579.20601      13557.21      -195.52628      2838.5824      3546.9046      13631.96      -4883.1974     -60.018196      0.92444179     55191.602    
   1660000   573.30174      13586.199     -275.99385      2850.059       3612.5513      13669.345     -4885.2288     -63.215268      0.936491       54481.488    
   1680000   582.31065      13380.309     -261.35625      2821.5281      3498.9204      13643.293     -4944.6618     -57.069993      0.94020719     54266.149    
   1700000   588.52981      13664.183     -254.36465      2839.5625      3652.0704      13644.897     -4836.2925     -59.462955      0.9391991      54324.395    
   1720000   581.49477      13725.475     -236.78065      2829.2576      3632.6482      13844.535     -4965.3026     -58.237926      0.90745985     56224.441    
   1740000   572.26052      13832.638     -250.71445      2824.3539      3657.6744      13889.954     -4912.3752     -54.838882      0.93739612     54428.882    
   1760000   576.26343      13541.532     -267.52913      2841.9343      3563.8724      13689.854     -4905.0441     -60.093223      0.93350999     54655.466    
   1780000   569.33743      13604.797     -289.57909      2816.1398      3657.0924      13547.752     -4748.3074     -56.324881      0.93182507     54754.293    
   1800000   588.48834      13603.902     -211.41982      2805.5977      3578.6535      13756.703     -4946.5103     -57.191955      0.92050887     55427.411    
   1820000   577.32462      13593.725     -227.59694      2805.5935      3587.418       13653.37      -4846.4408     -56.495394      0.93099121     54803.335    
   1840000   581.10525      13647.858     -82.832209      2818.1717      3569.8867      13644.529     -4926.0906     -55.854554      0.91407361     55817.631    
   1860000   581.77739      13556.679     -295.53         2817.0966      3566.218       13795.958     -4940.5929     -65.376578      0.93489893     54574.266    
   1880000   591.88589      13749.542     -193.53987      2819.2007      3653.6682      13691.227     -4839.3594     -60.670368      0.91894988     55521.442    
   1900000   584.66887      13696.811     -261.43859      2834.83        3703.5039      13754.988     -4959.1479     -56.366216      0.93130399     54784.929    
   1920000   577.76977      13701.193     -215.60214      2824.4557      3633.11        13667.099     -4823.971      -63.224956      0.93050003     54832.264    
   1940000   572.75011      13572.803     -294.57919      2818.3127      3666.3141      13632.409     -4867.1495     -62.834402      0.9306131      54825.601    
   1960000   570.51221      13690.134     -223.93877      2880.4309      3640.4615      13689.257     -4912.5123     -62.700802      0.93495444     54571.026    
   1980000   578.35378      13594.549     -164.23442      2862.1593      3692.9774      13540.785     -4953.2409     -63.11335       0.91248728     55914.668    
   2000000   582.21777      13502.268     -232.10406      2802.0854      3528.5125      13653.672     -4875.3764     -53.893463      0.93178929     54756.396    
   2020000   581.55786      13374.621     -240.48816      2854.5029      3523.0041      13472.84      -4842.9973     -70.557174      0.93882489     54346.048    
   2040000   580.57974      13401.494     -242.52447      2837.8596      3495.3272      13675.104     -4980.4887     -63.809931      0.93163106     54765.696    
   2060000   578.33061      13479.59      -253.01313      2831.3648      3523.3732      13592.77      -4834.5242     -58.977989      0.94009139     54272.833    
   2080000   579.55866      13684.155     -206.559        2832.2204      3502.7599      13774.756     -4842.3037     -55.301374      0.91814224     55570.282    
   2100000   580.80109      13701.004     -243.0768       2836.5846      3769.0144      13665.863     -4944.7369     -61.618795      0.93955298     54303.934    
   2120000   571.66554      13607.807     -193.07242      2848.8877      3591.24        13648.994     -4905.0352     -61.842383      0.92940601     54896.808    
   2140000   577.02489      13697.871     -225.32382      2848.8277      3564.426       13727.906     -4828.6728     -67.83871       0.93067136     54822.169    
   2160000   580.38191      13663.258     -181.39759      2844.5264      3562.6814      13656.515     -4832.8675     -65.233082      0.93060207     54826.252    
   2180000   570.66661      13495.42      -266.8089       2841.1525      3549.6929      13578.408     -4824.0925     -60.699141      0.93182289     54754.421    
   2200000   583.38985      13446.846     -208.49428      2830.7813      3561.1452      13530.689     -4876.5304     -68.583191      0.91945609     55490.875    
   2220000   584.11059      13530.55      -220.88081      2862.1434      3566.0249      13712.585     -5006.0208     -61.453311      0.92204657     55334.974    
   2240000   578.91471      13582.198     -227.40312      2842.0481      3564.2019      13691.919     -4906.356      -60.579569      0.94750106     53848.407    
   2260000   591.17322      13485.253     -243.18234      2843.6934      3537.0535      13634.522     -4909.6699     -55.431731      0.92849091     54950.913    
   2280000   587.70779      13702.24      -335.49487      2842.7182      3610.8438      13823.776     -4859.1222     -58.420893      0.93192358     54748.506    
   2300000   582.69325      13710.185     -234.14895      2864.4224      3676.4342      13630.056     -4848.2102     -55.869815      0.93692725     54456.12     
   2320000   587.79957      13660.943     -239.30348      2856.3069      3696.114       13641.637     -4900.7073     -71.257401      0.94033484     54258.782    
   2340000   583.66475      13692.984     -215.38849      2846.031       3494.3304      13886.595     -4939.9834     -57.55661       0.92339219     55254.337    
   2360000   588.12276      13835.017     -109.70109      2811.3868      3607.9747      13796.169     -4896.0497     -52.881042      0.9071471      56243.825    
   2380000   585.35004      13620.087     -204.91851      2846.4876      3462.6917      13791.875     -4890.748      -64.212811      0.93662147     54473.899    
   2400000   582.28402      13618.81      -225.23526      2856.8172      3678.0025      13507.748     -4814.8637     -62.020231      0.92067586     55417.357    
   2400079   579.677        13616.242     -170.20023      2852.5969      3642.6075      13507.701     -4833.5873     -61.380448      0.92304694     55275.004    
Loop time of 3750.6 on 24 procs for 1200000 steps with 4984 atoms

Performance: 6.911 ns/day, 3.473 hours/ns, 319.949 timesteps/s, 1.595 Matom-step/s
99.5% CPU use with 24 MPI tasks x no OpenMP threads

MPI task timing breakdown:
Section |  min time  |  avg time  |  max time  |%varavg| %total
---------------------------------------------------------------
Pair    | 1686       | 2036.3     | 2283.5     | 355.7 | 54.29
Bond    | 547.74     | 631.63     | 690.44     | 133.2 | 16.84
Kspace  | 591.54     | 860.72     | 1296       | 613.5 | 22.95
Neigh   | 48.038     | 48.103     | 48.158     |   0.5 |  1.28
Comm    | 124.15     | 127.23     | 129.87     |  13.4 |  3.39
Output  | 0.0041133  | 0.0046638  | 0.016741   |   3.7 |  0.00
Modify  | 31.775     | 33.945     | 35.612     |  17.1 |  0.91
Other   |            | 12.66      |            |       |  0.34

Nlocal:        207.667 ave         232 max         185 min
Histogram: 3 1 3 2 1 7 3 0 2 2
Nghost:        4568.12 ave        4631 max        4484 min
Histogram: 1 1 3 1 2 3 5 3 3 2
Neighs:          67775 ave       78731 max       53691 min
Histogram: 3 1 2 1 1 1 5 6 3 1

Total # of neighbors = 1626599
Ave neighs/atom = 326.36417
Ave special neighs/atom = 5.9574639
Neighbor list builds = 16800
Dangerous builds = 0
PPPM initialization ...
  using 12-bit tables for long-range coulomb (../kspace.cpp:342)
  G vector (1/distance) = 0.11624909
  grid = 4 4 4
  stencil order = 5
  estimated absolute RMS force accuracy = 0.2815404
  estimated relative force accuracy = 0.00084785054
  using double precision KISS FFT
  3d grid and FFT values/proc = 294 4
Generated 28 of 28 mixed pair_coeff terms from sixthpower/sixthpower mixing rule
Setting up Verlet run ...
  Unit style    : real
  Current step  : 2400079
  Time step     : 0.25
WARNING: Inconsistent image flags (../domain.cpp:815)
Per MPI rank memory allocation (min/avg/max) = 22.23 | 22.26 | 22.44 Mbytes
   Step          Temp          PotEng         E_vdwl         E_coul         E_bond        E_angle        E_dihed        E_impro        Density         Volume    
   2400079   579.677        13616.237     -170.20023      2851.7255      3642.6075      13507.701     -4833.5873     -61.380448      0.92304694     55275.004    
   2420000   554.31172      13490.266     -382.70842      2852.7317      3573.9896      13702.743     -4876.4968     -59.412825      0.95392501     53485.78     
   2440000   553.57579      13216.713     -313.42993      2822.9026      3485.8945      13458.507     -4858.0561     -57.723686      0.94625349     53919.403    
   2460000   561.33137      13179.455     -217.02652      2823.3613      3377.1263      13480.704     -4903.6194     -60.542455      0.93717659     54441.632    
   2480000   557.16709      13109.795     -319.50087      2829.0438      3431.3787      13523.936     -4968.8084     -65.824539      0.92983281     54871.61     
   2500000   562.44962      13321.229     -228.41351      2822.1372      3429.7695      13636.597     -4957.4098     -59.931935      0.92507917     55153.575    
   2520000   550.51425      13112.331     -240.95401      2766.0748      3410.8614      13464.704     -4905.0015     -61.859543      0.93040391     54837.928    
   2540000   550.23796      13268.883     -290.31735      2795.817       3576.3815      13465.95      -4901.4412     -56.000257      0.93342705     54660.322    
   2560000   569.34564      13175.283     -262.40037      2818.7492      3449.6003      13421.364     -4876.8043     -54.382927      0.92734143     55019.027    
   2580000   556.82276      13247.235     -291.98953      2812.4205      3510.7697      13513.655     -4918.2753     -57.082557      0.93743606     54426.563    
   2600000   562.11726      13286.263     -300.91423      2808.8525      3489.3286      13613.218     -4951.9907     -51.255477      0.93968999     54296.016    
   2620000   555.11613      12959.48      -346.7154       2802.0301      3411.6319      13341.998     -4864.7659     -63.727703      0.93207881     54739.388    
   2640000   571.95815      13059.34      -328.23437      2837.1941      3405.0758      13385.576     -4859.1293     -59.122308      0.95083541     53659.574    
   2660000   543.01345      13159.438     -273.46029      2835.5084      3387.2506      13445.381     -4842.2298     -72.836701      0.943908       54053.386    
   2680000   561.79532      13246.84      -270.66794      2846.997       3524.8679      13521.576     -4988.9545     -65.253097      0.93815813     54384.673    
   2700000   563.10236      13316.088     -198.79639      2836.7644      3407.188       13592.613     -4938.9264     -61.268101      0.92783502     54989.758    
   2720000   569.59828      13292.844     -332.64303      2831.7063      3630.3636      13493.037     -4948.0628     -61.10593       0.94207341     54158.649    
   2740000   554.05677      13154         -319.94032      2831.88        3475.9621      13494.693     -4937.6865     -69.310758      0.93185425     54752.579    
   2760000   562.21401      13289.138     -275.07213      2833.4938      3462.6778      13566.204     -4913.9829     -62.22213       0.94972644     53722.231    
   2780000   560.67865      13100.702     -307.53012      2844.059       3412.6866      13418.168     -4889.1905     -58.49429       0.92852052     54949.16     
   2800000   554.98025      13310.217     -352.91514      2802.8066      3630.4627      13555.374     -4938.9394     -65.027085      0.9361209      54503.028    
   2820000   564.96158      13187.87      -283.63343      2831.8573      3462.0554      13518.059     -4960.0436     -59.452092      0.95072619     53665.738    
   2840000   558.58634      13240.224     -309.23544      2827.7373      3504.1406      13536.264     -4941.4691     -57.414589      0.93343305     54659.97     
   2860000   548.6933       13097.888     -254.70536      2848.747       3376.6584      13483.097     -4976.0023     -58.541089      0.93269022     54703.504    
   2880000   560.33217      13177.744     -304.93933      2847.6432      3443.532       13533.635     -4956.2977     -64.582656      0.94761198     53842.105    
   2900000   558.9493       13265.157     -289.15676      2854.6067      3404.5361      13584.886     -4903.6054     -67.574022      0.94051401     54248.446    
   2920000   554.10932      13091.645     -277.57729      2826.9857      3332.4549      13482.882     -4889.3075     -62.065691      0.94435295     54027.917    
   2940000   555.44124      13295.268     -249.94723      2826.7037      3460.8358      13523.375     -4889.9199     -53.696414      0.9398029      54289.493    
   2960000   568.21022      13450.817     -242.75291      2830.0657      3466.905       13764.935     -4981.8896     -66.042598      0.92868835     54939.231    
   2980000   550.36206      13271.295     -241.7041       2829.387       3564.7149      13494.24      -4978.9207     -76.229597      0.92985128     54870.52     
   3000000   553.49099      13453.789     -353.97806      2808.3519      3646.5071      13605.987     -4870.7536     -61.452337      0.94113375     54212.723    
   3020000   561.91899      13433.287     -223.48737      2847.2353      3551.4984      13514.603     -4874.4636     -61.019257      0.93781997     54404.283    
   3040000   570.5612       13407.796     -230.29247      2847.156       3474.1598      13544.262     -4850.0428     -56.365026      0.91981906     55468.978    
   3060000   557.46801      13180.881     -256.63736      2817.5747      3386.2694      13484.26      -4872.4605     -57.136105      0.93376581     54640.492    
   3080000   552.29435      13238.925     -289.00629      2852.5973      3388.0764      13574.197     -4907.9404     -58.226646      0.94337605     54083.865    
   3100000   573.71991      13249.204     -296.02438      2824.2472      3414.5234      13536.663     -4856.9624     -52.331436      0.93398385     54627.736    
   3120000   559.39483      13038.843     -287.12329      2846.8271      3379.9234      13478.386     -5004.4728     -53.840168      0.9424895      54134.739    
   3140000   569.94145      13005.509     -252.8418       2851.5705      3429.8954      13367.603     -5010.368      -59.043397      0.94335772     54084.916    
   3160000   571.04165      13274.502     -246.93773      2842.8664      3402.6471      13553.58      -4895.4181     -61.226691      0.92731711     55020.47     
   3180000   554.65478      13280.755     -233.03162      2827.4578      3472.2956      13448.926     -4854.8027     -58.838762      0.93678062     54464.644    
   3200000   549.31343      13356.959     -231.90888      2848.3399      3491.4432      13608.572     -4973.3134     -65.235692      0.92860607     54944.098    
   3220000   552.63811      13320.215     -299.20933      2832.4062      3388.1702      13724.028     -4934.0722     -69.969507      0.94091125     54225.542    
   3240000   565.03608      12976.851     -209.64017      2820.4902      3321.1975      13390.297     -4965.5352     -59.706829      0.93644395     54484.225    
   3260000   578.12246      13303.243     -355.44041      2815.6828      3461.0265      13715.521     -4958.6936     -53.846274      0.93311792     54678.43     
   3280000   566.47702      13471.174     -292.69659      2834.1631      3580.8276      13619.838     -4901.8164     -48.741653      0.92475755     55172.756    
   3300000   555.30673      13147.065     -292.711        2831.548       3375.3918      13542.382     -4927.2581     -62.123684      0.94071704     54236.738    
   3320000   568.93247      13227.054     -295.77209      2856.8283      3477.5287      13500.493     -4930.3276     -60.572349      0.93764403     54414.492    
   3340000   555.45981      13299.039     -186.0367       2840.2485      3521.2025      13463.91      -4958.0317     -62.630159      0.93084561     54811.907    
   3360000   567.98058      13355.838     -272.08066      2844.781       3468.3995      13545.791     -4851.1611     -60.218893      0.93266611     54704.918    
   3380000   573.76319      13310.371     -311.68337      2824.658       3481.4416      13580.575     -4883.3424     -60.289399      0.93873486     54351.261    
   3400000   560.24279      13433.163     -230.14973      2836.7898      3521.3078      13574.427     -4897.0845     -52.724667      0.9238114      55229.263    
   3420000   566.33874      13424.524     -214.6588       2861.3512      3508.0292      13672.474     -5022.8897     -58.627911      0.92654093     55066.561    
   3440000   550.85248      13305.51      -223.40577      2872.5477      3405.5626      13615.949     -4982.6131     -61.376891      0.92995044     54864.669    
   3460000   561.53718      13459.725     -227.6172       2845.9658      3521.2881      13577.37      -4876.2088     -60.412725      0.94434957     54028.11     
   3480000   549.61177      13176.791     -324.4886       2847.1847      3401.7598      13541.783     -4911.1309     -56.931802      0.94288302     54112.146    
   3500000   558.41661      13290.7       -304.08577      2835.8998      3530.3212      13577.686     -4971.4978     -57.900904      0.94065199     54240.488    
   3520000   561.84668      13203.798     -304.87775      2845.4802      3449.0755      13444.054     -4849.2349     -61.354509      0.92861198     54943.748    
   3540000   547.19178      13346.291     -249.71862      2862.1842      3485.054       13609.345     -4987.6603     -51.893307      0.93134603     54782.456    
   3560000   552.68804      12984.865     -281.23797      2810.8272      3427.2016      13288.124     -4868.3739     -70.152142      0.94259768     54128.526    
   3580000   549.61882      13190.529     -225.70229      2844.4251      3454.7011      13491.531     -4988.1304     -65.402075      0.92849873     54950.45     
   3600000   564.50397      13157.932     -336.1331       2831.6723      3401.2727      13595.571     -4959.5429     -53.956999      0.94395972     54050.424    
   3600079   552.37392      13332.623     -357.85481      2837.8275      3591.1791      13619.768     -4974.8916     -62.357773      0.94269236     54123.09     
Loop time of 3760.18 on 24 procs for 1200000 steps with 4984 atoms

Performance: 6.893 ns/day, 3.482 hours/ns, 319.133 timesteps/s, 1.591 Matom-step/s
99.5% CPU use with 24 MPI tasks x no OpenMP threads

MPI task timing breakdown:
Section |  min time  |  avg time  |  max time  |%varavg| %total
---------------------------------------------------------------
Pair    | 1689.7     | 2048.2     | 2254.4     | 363.7 | 54.47
Bond    | 550.75     | 631.52     | 690.07     | 133.4 | 16.80
Kspace  | 652.18     | 860.23     | 1300.5     | 634.9 | 22.88
Neigh   | 46.375     | 46.478     | 46.556     |   0.8 |  1.24
Comm    | 123.85     | 127.13     | 129.81     |  13.7 |  3.38
Output  | 0.0039674  | 0.0043507  | 0.012621   |   2.6 |  0.00
Modify  | 31.845     | 33.946     | 35.527     |  17.0 |  0.90
Other   |            | 12.65      |            |       |  0.34

Nlocal:        207.667 ave         231 max         181 min
Histogram: 1 2 1 2 2 6 4 2 2 2
Nghost:        4657.75 ave        4750 max        4565 min
Histogram: 4 0 3 3 2 3 2 1 3 3
Neighs:        69388.1 ave       84150 max       53209 min
Histogram: 1 2 1 1 3 7 4 2 2 1

Total # of neighbors = 1665314
Ave neighs/atom = 334.13202
Ave special neighs/atom = 5.9574639
Neighbor list builds = 16239
Dangerous builds = 0
PPPM initialization ...
  using 12-bit tables for long-range coulomb (../kspace.cpp:342)
  G vector (1/distance) = 0.11684218
  grid = 4 4 4
  stencil order = 5
  estimated absolute RMS force accuracy = 0.2806144
  estimated relative force accuracy = 0.00084506194
  using double precision KISS FFT
  3d grid and FFT values/proc = 294 4
Generated 28 of 28 mixed pair_coeff terms from sixthpower/sixthpower mixing rule
Setting up Verlet run ...
  Unit style    : real
  Current step  : 3600079
  Time step     : 0.25
WARNING: Inconsistent image flags (../domain.cpp:815)
Per MPI rank memory allocation (min/avg/max) = 22.23 | 22.26 | 22.44 Mbytes
   Step          Temp          PotEng         E_vdwl         E_coul         E_bond        E_angle        E_dihed        E_impro        Density         Volume    
   3600079   552.37392      13332.691     -357.85481      2844.6175      3591.1791      13619.768     -4974.8916     -62.357773      0.94269236     54123.09     
   3620000   545.4369       12832.871     -297.6661       2849.5717      3281.1279      13384.265     -4997.2849     -59.276172      0.93919104     54324.862    
   3640000   550.00386      12896.051     -389.26628      2849.0401      3304.0609      13528.355     -5008.6972     -58.869647      0.95156958     53618.174    
   3660000   540.29861      12865.474     -334.07916      2855.6054      3319.6418      13326.103     -4911.9291     -62.080809      0.95095306     53652.935    
   3680000   540.99055      12702.089     -301.58265      2873.9227      3320.9181      13172.155     -4984.1983     -51.417568      0.94501101     53990.295    
   3700000   543.87342      12867.774     -370.90971      2846.7181      3303.2826      13353.613     -4895.2578     -44.257468      0.95133746     53631.256    
   3720000   535.15707      12953.232     -364.46155      2830.7794      3325.5114      13513.188     -4966.0439     -58.458817      0.94991827     53711.382    
   3740000   541.11328      12817.463     -324.65096      2862.9143      3245.3807      13369.856     -4941.9319     -66.363825      0.94932998     53744.666    
   3760000   543.55531      12776.612     -352.17538      2825.3441      3294.1613      13346.21      -4950.9133     -58.225283      0.9578508      53266.566    
   3780000   541.51645      12743.478     -304.91789      2829.2554      3255.666       13326.7       -4973.1625     -61.87329       0.95106123     53646.833    
   3800000   545.81981      12790.388     -350.20389      2819.8561      3295.7862      13328.116     -4915.8693     -59.685762      0.96129971     53075.459    
   3820000   547.70228      12864.775     -346.99318      2814.3737      3349.8592      13452.229     -5019.1762     -58.558173      0.94352556     54075.295    
   3840000   536.9581       12866.716     -400.33973      2808.468       3312.964       13409.887     -4884.8579     -51.536914      0.94233218     54143.777    
   3860000   527.0137       12792.335     -329.32694      2825.5125      3335.7701      13301.653     -4962.2257     -51.129436      0.94718372     53866.448    
   3880000   539.74619      12787.062     -320.7822       2849.2397      3283.8104      13413.245     -5064.2153     -46.74943       0.94865596     53782.852    
   3900000   548.7268       12994.54      -327.2112       2822.5164      3450.5554      13351.642     -4910.4168     -64.449081      0.94385642     54056.339    
   3920000   542.24022      12779.81      -364.63384      2819.3339      3301.2669      13330.676     -4921.8959     -57.576685      0.95705412     53310.907    
   3940000   538.56082      12997.582     -354.20576      2848.1678      3510.967       13331.991     -4946.2713     -65.46699       0.94828689     53803.784    
   3960000   530.84761      12989.57      -329.75242      2850.5358      3347.9767      13451.098     -4942.0695     -59.59043       0.95936374     53182.563    
   3980000   524.85901      12900.191     -355.72491      2843.3225      3461.3502      13214.597     -4880.8147     -54.258102      0.94643908     53908.83     
   4000000   537.21959      13019.192     -340.48355      2843.5769      3311.9498      13505.353     -4925.1349     -48.603529      0.94057401     54244.985    
   4020000   535.53415      12972.233     -371.9144       2829.5879      3346.1506      13551.5       -4993.2607     -61.72079       0.93115748     54793.549    
   4040000   532.91065      12870.874     -361.27291      2846.4317      3333.874       13387.681     -4949.4582     -58.039756      0.92614425     55090.147    
   4060000   537.04305      12744.878     -261.10048      2839.8813      3154.3945      13347.431     -4946.2017     -60.964235      0.94171282     54179.387    
   4080000   538.44234      13019.081     -305.87856      2820.1343      3350.9377      13467.544     -4922.7543     -61.788886      0.93729198     54434.93     
   4100000   530.30271      12765.46      -374.07975      2802.1981      3204.2891      13519.021     -5002.5234     -55.272734      0.94915614     53754.51     
   4120000   549.82329      12943.134     -284.08888      2819.4739      3330.4686      13347.617     -4883.9082     -58.949662      0.94430568     54030.622    
   4140000   537.11449      12933.366     -378.32517      2819.5598      3453.4856      13472.579     -5049.6725     -56.583355      0.94855087     53788.811    
   4160000   533.61838      12908.109     -264.24768      2820.8528      3370.945       13319.961     -4960.7513     -51.535598      0.94740682     53853.764    
   4180000   538.17642      12793.045     -293.05857      2823.251       3214.2458      13412.823     -4976.7043     -59.933938      0.94595407     53936.47     
   4200000   537.92762      12939.741     -342.5541       2790.1213      3393.3354      13447.106     -4954.7987     -65.383763      0.94429406     54031.287    
   4220000   543.98027      12751.69      -364.83976      2833.0809      3240.1449      13254.617     -4823.685      -59.894352      0.95011884     53700.043    
   4240000   533.2024       12895.83      -350.89992      2851.2414      3341.5418      13331.649     -4897.0925     -53.855872      0.94602056     53932.679    
   4260000   544.75293      12905.676     -314.91033      2831.3144      3356.2732      13369.192     -4956.4217     -52.21471       0.93907857     54331.368    
   4280000   541.13294      13118.146     -301.48554      2845.2891      3501.3677      13350.431     -4888.8856     -60.687566      0.9303338      54842.061    
   4300000   530.39331      12899.704     -302.61827      2854.0383      3271.8179      13305.048     -4841.3402     -59.145122      0.9446823      54009.082    
   4320000   535.9176       12953.821     -316.08215      2822.453       3359.1014      13390.504     -4919.2592     -55.255154      0.9371311      54444.275    
   4340000   539.26439      12801.634     -401.76811      2836.7911      3331.117       13404.653     -4985.6976     -55.541224      0.95214273     53585.898    
   4360000   540.1515       13244.915     -245.79663      2852.9411      3433.919       13544.253     -4946.4522     -66.898914      0.93325741     54670.258    
   4380000   551.51961      12866.435     -329.86203      2826.7919      3361.3592      13290.829     -4890.6249     -63.775667      0.94232648     54144.104    
   4400000   531.39646      12911.593     -311.47855      2849.321       3282.077       13382.913     -4910.8025     -52.571107      0.9353483      54548.047    
   4420000   537.13892      12810.532     -380.82891      2798.0363      3400.3826      13321.403     -4937.1652     -63.843342      0.95109757     53644.783    
   4440000   542.08609      12927.491     -353.22977      2827.9427      3344.248       13308.957     -4807.6252     -65.023017      0.94009653     54272.536    
   4460000   550.71104      13017.945     -357.66074      2834.5574      3434.0209      13406.932     -4909.5434     -63.026191      0.94387856     54055.071    
   4480000   537.86022      12648.292     -388.83002      2863.0812      3309.6159      13190.534     -4934.9772     -63.027978      0.95886751     53210.086    
   4500000   540.93635      12772.165     -330.88236      2821.493       3312.2249      13267.011     -4915.7425     -53.453143      0.94876641     53776.591    
   4520000   540.44295      12995.8       -265.15823      2869.0111      3439.1911      13153.655     -4811.525      -61.175209      0.9399173      54282.885    
   4540000   539.94286      12919.995     -252.64068      2845.3907      3212.3992      13464.851     -4969.8112     -52.63014       0.94057128     54245.143    
   4560000   543.80859      12869.233     -308.16261      2840.719       3313.4086      13280.267     -4877.5773     -50.997194      0.9385168      54363.889    
   4580000   531.89329      12978.801     -271.22627      2833.1228      3365.5656      13385.277     -4952.4556     -54.694751      0.94617481     53923.886    
   4600000   533.91664      12937.526     -313.29506      2826.6464      3309.7663      13328.928     -4818.7234     -67.510187      0.94206365     54159.21     
   4620000   543.11414      12969.277     -219.58471      2829.6008      3289.9881      13455.831     -4998.2362     -60.147593      0.93079556     54814.854    
   4640000   543.7675       12855.423     -286.98793      2833.1907      3277.3364      13318.179     -4892.0069     -65.978319      0.93813848     54385.812    
   4660000   549.37596      12870.311     -328.58632      2845.5833      3294.6627      13417.38      -4971.9017     -59.012225      0.9402876      54261.508    
   4680000   540.31305      12812.821     -261.36814      2838.777       3302.4027      13325.242     -5007.9556     -57.159471      0.93325912     54670.157    
   4700000   547.28703      12948.622     -427.71908      2854.1583      3376.6923      13375.365     -4839.7082     -62.650346      0.9537713      53494.4      
   4720000   541.88689      13020.406     -226.13534      2870.1208      3340.9945      13397.713     -4978.8143     -55.53442       0.94761779     53841.774    
   4740000   551.25885      12907.299     -419.25315      2825.388       3333.1706      13531.707     -4972.8409     -64.450396      0.94402383     54046.753    
   4760000   544.46045      12818.538     -352.93462      2837.7804      3286.5615      13424.005     -4993.3546     -56.116436      0.95001562     53705.878    
   4780000   544.7943       12926.838     -356.73271      2847.7479      3404.7288      13435.749     -5017.611      -59.06898       0.95093892     53653.733    
   4800000   546.65017      12838.956     -295.9305       2835.2652      3303.663       13326.052     -4940.978      -60.702847      0.94780085     53831.375    
   4800079   535.16513      12886.917     -347.44961      2829.6852      3309.9965      13427.677     -4948.304      -56.535797      0.94205171     54159.897    
Loop time of 3756.43 on 24 procs for 1200000 steps with 4984 atoms

Performance: 6.900 ns/day, 3.478 hours/ns, 319.452 timesteps/s, 1.592 Matom-step/s
99.5% CPU use with 24 MPI tasks x no OpenMP threads

MPI task timing breakdown:
Section |  min time  |  avg time  |  max time  |%varavg| %total
---------------------------------------------------------------
Pair    | 1732.2     | 2067.2     | 2284.5     | 348.8 | 55.03
Bond    | 577.7      | 630.95     | 710.65     | 117.1 | 16.80
Kspace  | 613.87     | 839.01     | 1225.3     | 601.3 | 22.34
Neigh   | 44.651     | 44.726     | 44.772     |   0.6 |  1.19
Comm    | 124.51     | 127.62     | 129.99     |  13.3 |  3.40
Output  | 0.0038453  | 0.0041789  | 0.011503   |   2.4 |  0.00
Modify  | 32.17      | 34.211     | 35.929     |  16.1 |  0.91
Other   |            | 12.7       |            |       |  0.34

Nlocal:        207.667 ave         233 max         189 min
Histogram: 3 3 2 3 2 6 2 0 1 2
Nghost:        4658.42 ave        4694 max        4612 min
Histogram: 2 2 1 3 2 2 2 4 1 5
Neighs:          69591 ave       81168 max       57831 min
Histogram: 2 1 2 3 3 5 2 2 3 1

Total # of neighbors = 1670184
Ave neighs/atom = 335.10915
Ave special neighs/atom = 5.9574639
Neighbor list builds = 15686
Dangerous builds = 0
PPPM initialization ...
  using 12-bit tables for long-range coulomb (../kspace.cpp:342)
  G vector (1/distance) = 0.11682301
  grid = 4 4 4
  stencil order = 5
  estimated absolute RMS force accuracy = 0.28064472
  estimated relative force accuracy = 0.00084515323
  using double precision KISS FFT
  3d grid and FFT values/proc = 294 4
Generated 28 of 28 mixed pair_coeff terms from sixthpower/sixthpower mixing rule
Setting up Verlet run ...
  Unit style    : real
  Current step  : 4800079
  Time step     : 0.25
WARNING: Inconsistent image flags (../domain.cpp:815)
Per MPI rank memory allocation (min/avg/max) = 22.24 | 22.26 | 22.44 Mbytes
   Step          Temp          PotEng         E_vdwl         E_coul         E_bond        E_angle        E_dihed        E_impro        Density         Volume    
   4800079   535.16513      12886.91      -347.44961      2829.4606      3309.9965      13427.677     -4948.304      -56.535797      0.94205171     54159.897    
   4820000   520.13361      12595.874     -315.11602      2815.5589      3220.022       13191.975     -4928.5678     -60.843401      0.95099524     53650.556    
   4840000   520.05401      12626.06      -334.53444      2806.7585      3239.527       13340.175     -5038.4993     -58.907938      0.94764154     53840.425    
   4860000   515.89305      12586.483     -475.1333       2815.8982      3215.5968      13454.002     -5036.9906     -60.708649      0.94886979     53770.732    
   4880000   519.12702      12550.747     -345.99948      2838.3586      3205.1951      13278.002     -5040.4825     -55.787973      0.94013636     54270.237    
   4900000   527.81869      12648.526     -336.18412      2845.0833      3284.8241      13186.79      -4948.7913     -56.331381      0.94552501     53960.945    
   4920000   513.20395      12494.932     -390.76965      2810.683       3245.8084      13136.257     -4928.7481     -50.992196      0.95649905     53341.844    
   4940000   515.87349      12525.967     -416.63456      2831.4454      3215.3026      13176.974     -4897.1133     -56.341098      0.95106873     53646.41     
   4960000   521.06142      12535.477     -354.4444       2815.9856      3237.6811      13181.314     -4961.032      -57.852224      0.9496604      53725.967    
   4980000   513.44483      12761.297     -324.67578      2836.938       3273.2207      13360.421     -4994.2959     -62.627402      0.95021304     53694.72     
   5000000   519.26676      12551.7       -364.99554      2830.7         3257.0485      13185.002     -4965.7421     -62.51566       0.93804228     54391.389    
   5020000   523.62017      12733.748     -304.26657      2842.3152      3283.28        13237.331     -4939.4689     -57.864711      0.93443609     54601.297    
   5040000   515.52962      12750.061     -375.73333      2855.7528      3305.1249      13365.084     -5021.1136     -51.106959      0.94188194     54169.658    
   5060000   521.25188      12730.922     -405.57517      2865.428       3333.1916      13294.825     -4973.6892     -55.925453      0.95649375     53342.139    
   5080000   514.67828      12627.031     -361.83972      2837.2838      3224.8978      13299.617     -4982.6007     -63.006402      0.9471998      53865.534    
   5100000   519.83713      12362.047     -403.78093      2834.4774      3154.8148      13165.239     -5003.8003     -57.590721      0.95267407     53556.011    
   5120000   508.96391      12619.296     -384.87727      2840.3166      3270.5426      13270.116     -4986.1216     -63.113781      0.9524821      53566.805    
   5140000   524.50664      12600.524     -398.59127      2844.1255      3214.4144      13282.202     -4949.3689     -63.986331      0.96402019     52925.679    
   5160000   510.0014       12557.511     -339.87733      2803.5352      3098.8786      13324.605     -4956.7671     -46.28504       0.93731075     54433.84     
   5180000   512.29092      12714.143     -384.86058      2806.5958      3259.2799      13341.553     -4928.5931     -52.47678       0.93570961     54526.984    
   5200000   531.42725      12517.202     -325.09094      2838.3563      3175.806       13224.166     -5011.0727     -58.124792      0.95167318     53612.337    
   5220000   520.3169       12591.67      -287.43732      2834.9078      3119.0827      13288.345     -4978.8646     -57.81084       0.93678465     54464.41     
   5240000   523.11153      12606.235     -282.15804      2871.3139      3251.2601      13172.294     -5033.3853     -46.068666      0.93095851     54805.26     
   5260000   513.90877      12704.39      -386.60416      2835.7455      3292.1641      13274.534     -4915.7646     -68.314266      0.94888459     53769.894    
   5280000   510.8472       12671.389     -312.79668      2835.301       3174.5944      13368.983     -5008.3831     -59.232458      0.94698431     53877.791    
   5300000   523.02159      12637.599     -370.98141      2830.2572      3219.2189      13267.135     -4920.3342     -60.487418      0.94845749     53794.106    
   5320000   517.83154      12726.698     -432.99303      2822.1826      3248.3371      13434.293     -4961.3097     -56.208395      0.95284139     53546.607    
   5340000   534.24889      12508.996     -382.36051      2831.8817      3231.4374      13165.856     -4948.0321     -62.021379      0.95784422     53266.932    
   5360000   517.95705      12542.173     -426.2867       2850.2253      3201.6598      13308.086     -5010.7953     -53.169273      0.9418245      54172.962    
   5380000   518.6022       12714.985     -286.20647      2840.4811      3199.4891      13312.389     -4957.8429     -66.51727       0.9567713      53326.665    
   5400000   524.51251      12602.766     -344.5177       2820.1793      3218.2857      13256.306     -4957.4195     -62.399163      0.95260849     53559.698    
   5420000   517.74284      12456.677     -362.09267      2827.3333      3187.1724      13224.809     -5038.0869     -55.173605      0.9680183      52707.085    
   5440000   520.78595      12329.991     -334.94684      2848.4204      3138.7366      13040.216     -4988.4985     -48.005466      0.94962708     53727.852    
   5460000   525.47676      12566.626     -404.56259      2820.6438      3250.9536      13268.277     -4985.3771     -55.564032      0.96383874     52935.643    
   5480000   522.47918      12551.806     -391.36275      2834.8575      3151.9163      13290.968     -4958.1863     -48.704302      0.94833388     53801.118    
   5500000   520.17262      12715.153     -383.32779      2821.0703      3353.599       13249.67      -4930.4203     -67.819437      0.96967521     52617.023    
   5520000   528.30745      12563.424     -441.03906      2825.3498      3257.0189      13269.574     -4967.5681     -53.02999       0.96062288     53112.855    
   5540000   521.11255      12535.501     -343.57739      2827.3364      3133.231       13288.049     -4978.0224     -64.853148      0.95880537     53213.535    
   5560000   529.14288      12345.529     -403.62862      2856.2281      3171.4296      13181.508     -5068.8329     -64.964691      0.95074211     53664.84     
   5580000   509.17617      12496.544     -348.30871      2843.8989      3196.9616      13180.892     -4985.1863     -64.93515       0.95372322     53497.096    
   5600000   518.79719      12486.543     -342.71706      2857.8523      3159.5657      13208.941     -5019.4839     -50.891652      0.96067491     53109.978    
   5620000   524.83698      12526.957     -353.15097      2843.7961      3183.2493      13217.502     -4970.1832     -65.374076      0.95547741     53398.88     
   5640000   517.28018      12668.103     -393.33874      2879.5926      3273.2238      13316.135     -5017.6171     -63.327685      0.9518699      53601.257    
   5660000   518.72588      12596.33      -408.15566      2862.6171      3254.1365      13209.134     -4926.5307     -68.318627      0.95127245     53634.921    
   5680000   531.60711      12527.051     -407.46788      2811.747       3169.3406      13396.718     -5052.1485     -63.022703      0.9531621      53528.59     
   5700000   523.57373      12660.319     -318.55702      2839.6674      3247.5041      13256.933     -4979.5275     -57.916937      0.94484686     53999.675    
   5720000   531.26666      12564.321     -374.75133      2834.3217      3188.7648      13336.888     -5039.3626     -54.829478      0.94342866     54080.849    
   5740000   510.97235      12425.376     -391.47954      2797.6177      3249.3901      13177.794     -5031.3175     -49.603797      0.95878824     53214.486    
   5760000   513.61672      12425.063     -441.22676      2808.7752      3247.0704      13172.042     -4977.4882     -55.775487      0.96182788     53046.313    
   5780000   516.76134      12495.465     -446.29817      2826.5683      3203.3588      13342.322     -5039.9082     -63.148809      0.96759373     52730.213    
   5800000   516.01991      12421.4       -423.21707      2804.13        3196.3095      13261.682     -5035.7638     -53.127222      0.95820887     53246.661    
   5820000   527.14867      12418.256     -471.31741      2810.7131      3224.8175      13238.491     -4996.1078     -60.824351      0.96307442     52977.653    
   5840000   512.57062      12435.955     -348.47925      2833.1205      3118.6423      13295.91      -5082.2365     -53.345642      0.95481206     53436.09     
   5860000   508.56829      12605.985     -324.39616      2857.6418      3184.7177      13174.344     -4908.8644     -49.869345      0.95110653     53644.278    
   5880000   517.24815      12444.979     -429.35925      2831.9661      3234.0913      13259.479     -5072.6641     -51.541357      0.95535469     53405.739    
   5900000   522.66049      12523.557     -360.31935      2821.3788      3228.5199      13172.145     -4945.3247     -64.920616      0.95553789     53395.5      
   5920000   529.43597      12548.488     -414.81785      2831.6045      3188.7689      13324.707     -4985.4996     -69.531579      0.96147579     53065.739    
   5940000   524.25669      12712.453     -333.80247      2825.2659      3370.0566      13164.232     -4927.763      -57.626375      0.95162389     53615.114    
   5960000   513.70375      12372.154     -351.09795      2807.0695      3164.7886      13186.872     -5050.2952     -56.904708      0.95680916     53324.556    
   5980000   522.17179      12479.323     -318.61928      2837.3585      3283.4191      13026.811     -4972.6012     -50.322244      0.94220741     54150.946    
   6000000   518.56946      12341.11      -389.03118      2842.2137      3127.2877      13078.953     -4931.4059     -60.214486      0.95748108     53287.134    
   6000079   514.13597      12364.042     -404.57795      2817.3415      3222.2719      13051.041     -4933.5248     -61.475146      0.95681151     53324.424    
Loop time of 3767.32 on 24 procs for 1200000 steps with 4984 atoms

Performance: 6.880 ns/day, 3.488 hours/ns, 318.529 timesteps/s, 1.588 Matom-step/s
99.5% CPU use with 24 MPI tasks x no OpenMP threads

MPI task timing breakdown:
Section |  min time  |  avg time  |  max time  |%varavg| %total
---------------------------------------------------------------
Pair    | 1764       | 2084.4     | 2281.1     | 346.6 | 55.33
Bond    | 568.53     | 630.63     | 702.31     | 131.1 | 16.74
Kspace  | 649.19     | 833.99     | 1217.4     | 610.6 | 22.14
Neigh   | 43.449     | 43.499     | 43.554     |   0.6 |  1.15
Comm    | 125.38     | 128.15     | 130.04     |  12.2 |  3.40
Output  | 0.0029533  | 0.0032755  | 0.010259   |   2.5 |  0.00
Modify  | 32.463     | 34.064     | 35.556     |  15.3 |  0.90
Other   |            | 12.58      |            |       |  0.33

Nlocal:        207.667 ave         233 max         173 min
Histogram: 2 1 0 2 2 5 1 7 3 1
Nghost:        4685.71 ave        4757 max        4625 min
Histogram: 3 3 3 2 3 2 2 2 2 2
Neighs:        70234.2 ave       85245 max       54800 min
Histogram: 3 1 1 1 3 6 4 2 2 1

Total # of neighbors = 1685622
Ave neighs/atom = 338.20666
Ave special neighs/atom = 5.9574639
Neighbor list builds = 15155
Dangerous builds = 0
PPPM initialization ...
  using 12-bit tables for long-range coulomb (../kspace.cpp:342)
  G vector (1/distance) = 0.11726179
  grid = 4 4 4
  stencil order = 5
  estimated absolute RMS force accuracy = 0.27994451
  estimated relative force accuracy = 0.00084304458
  using double precision KISS FFT
  3d grid and FFT values/proc = 294 4
Generated 28 of 28 mixed pair_coeff terms from sixthpower/sixthpower mixing rule
Setting up Verlet run ...
  Unit style    : real
  Current step  : 6000079
  Time step     : 0.25
WARNING: Inconsistent image flags (../domain.cpp:815)
Per MPI rank memory allocation (min/avg/max) = 22.24 | 22.26 | 22.44 Mbytes
   Step          Temp          PotEng         E_vdwl         E_coul         E_bond        E_angle        E_dihed        E_impro        Density         Volume    
   6000079   514.13597      12364.309     -404.57795      2822.5795      3222.2719      13051.041     -4933.5248     -61.475146      0.95681151     53324.424    
   6020000   499.93721      12272.609     -367.87037      2834.3952      3117.2954      13084.847     -5002.0632     -60.840281      0.96036703     53127.004    
   6040000   504.85022      12089.702     -397.18383      2815.9851      3092.1356      12973.385     -5006.5885     -55.115307      0.97108719     52540.517    
   6060000   499.80205      12095.872     -475.09695      2793.4184      3133.8132      13099.704     -5060.5471     -63.387478      0.95596143     53371.843    
   6080000   507.87117      12296.965     -347.37796      2826.893       3138.422       12986.698     -4919.1865     -55.71352       0.95443376     53457.27     
   6100000   492.84264      12074.801     -441.18123      2819.8693      3078.2862      13039.074     -5032.5436     -56.673819      0.95952014     53173.895    
   6120000   497.05813      12036.139     -470.39709      2827.0538      3031.755       12989.547     -4946.5112     -62.215248      0.957438       53289.532    
   6140000   511.35987      12041.546     -461.54779      2813.8316      2974.6849      13128.187     -5018.5186     -61.75634       0.97432814     52365.749    
   6160000   494.87233      12223.197     -447.94475      2844.3831      3027.2394      13284.766     -5090.7672     -61.717201      0.9721923      52480.793    
   6180000   500.07564      12157.432     -394.12999      2820.2292      3094.2987      13098.697     -5077.6478     -51.917942      0.96555219     52841.704    
   6200000   497.65768      12251.23      -437.00006      2821.5513      3162.9368      13095.803     -5003.8902     -56.10467       0.97434838     52364.662    
   6220000   503.31107      12127.776     -469.26473      2841.2812      3138.4709      13125.546     -5122.1655     -53.51664       0.95867228     53220.922    
   6240000   501.13207      12260.242     -461.65567      2837.472       3210.9386      13128.46      -5058.4547     -65.365802      0.96810908     52702.143    
   6260000   493.85124      12268.701     -444.81894      2840.0904      3214.225       13065.991     -5011.6812     -63.226631      0.94600518     53933.556    
   6280000   508.78191      12079.077     -417.28472      2853.4449      3025.6507      12966.378     -4951.7995     -66.585839      0.95274494     53552.027    
   6300000   501.51414      12177.219     -359.08259      2844.95        3132.6038      12966.06      -5027.3855     -46.950712      0.95570038     53386.422    
   6320000   497.22102      12109.69      -414.48689      2848.5271      3075.2951      12936.524     -4935.937      -66.707524      0.9554819      53398.629    
   6340000   498.67479      12053.65      -513.49363      2822.5393      3093.1582      13022.555     -4990.7951     -47.397124      0.9706697      52563.115    
   6360000   498.15726      12125.71      -444.72168      2829.398       3136.5271      13037.093     -5041.772      -58.107145      0.96529897     52855.566    
   6380000   504.53338      12113.871     -478.56389      2824.732       3086.546       13171.562     -5097.558      -60.927402      0.96533329     52853.687    
   6400000   494.18157      12119.236     -417.72579      2823.8543      3101.4893      13042.75      -5050.6686     -48.156355      0.96632505     52799.442    
   6420000   503.60225      12218.724     -437.80375      2837.7287      3108.1219      13156.209     -5056.955      -55.94856       0.96209825     53031.406    
   6440000   499.3422       12053.222     -448.02432      2822.5555      3043.9407      13082.688     -5062.0488     -53.236727      0.97175839     52504.227    
   6460000   507.58512      12085.711     -515.37535      2832.1026      3100.4168      13087.745     -5024.6075     -61.035372      0.96692489     52766.687    
   6480000   498.81361      12259.592     -439.43404      2842.1994      3162.2018      13092.595     -5006.1222     -59.795861      0.95336406     53517.25     
   6500000   499.16432      12124.942     -459.18714      2851.7559      3076.8531      13068.488     -5020.2221     -60.015182      0.9677135      52723.686    
   6520000   505.57282      12170.164     -488.39479      2811.0075      3102.1096      13082.276     -4936.2742     -67.032803      0.96126084     53077.605    
   6540000   492.67156      11965.184     -454.81112      2847.9393      3046.5506      13022.562     -5110.1136     -54.603002      0.97554481     52300.44     
   6560000   497.88252      12270.628     -325.23012      2813.4979      3099.0333      13016.409     -4948.0528     -51.868656      0.95103477     53648.326    
   6580000   498.66873      12071.207     -446.39653      2796.8129      3124.9459      13071.607     -5077.9327     -66.129682      0.96176458     53049.805    
   6600000   504.14972      12181.616     -422.90559      2794.8329      3095.7448      13106.505     -4999.4027     -60.108021      0.95867111     53220.988    
   6620000   497.12115      12249.236     -372.46723      2861.5305      3096.6634      13102.128     -5047.7513     -57.252589      0.95813725     53250.641    
   6640000   499.86028      12162.577     -398.77694      2839.7576      3113.7382      13123.166     -5125.2642     -57.022846      0.9538539      53489.767    
   6660000   509.46551      12199.799     -408.55145      2819.2728      3167.3036      13033.464     -5025.1809     -53.932827      0.94612092     53926.958    
   6680000   488.77659      12247.662     -454.77693      2845.9582      3153.3003      13061.27      -4971.0471     -55.320619      0.95519028     53414.931    
   6700000   508.15381      12055.633     -471.16653      2819.5453      3055.8331      12956.021     -4913.7627     -58.192999      0.96488888     52878.03     
   6720000   496.0047       12242.577     -434.99848      2847.639       3118.1204      13240.462     -5132.7757     -63.617746      0.95040505     53683.872    
   6740000   508.67961      12181.686     -411.60734      2843.7831      3181.1413      12975.191     -5020.7119     -54.459555      0.95138989     53628.301    
   6760000   499.81177      12211.546     -389.82281      2827.2462      3087.6996      13089.842     -5006.8395     -64.910008      0.95371483     53497.567    
   6780000   511.28199      12292.832     -392.64886      2868.1109      3127.2352      13279.776     -5199.0909     -57.614429      0.95819029     53247.694    
   6800000   513.47072      12139.414     -397.93         2824.5416      3153.8167      12998.375     -5050.6194     -56.260706      0.94629248     53917.181    
   6820000   510.85044      12060.335     -362.22342      2830.7949      3024.0662      12964.752     -5005.2468     -58.497349      0.96009675     53141.96     
   6840000   509.12051      12095.062     -488.84153      2823.067       3177.297       13009.263     -5040.5018     -52.058801      0.96552907     52842.97     
   6860000   486.95454      12100.105     -427.01763      2823.5996      3077.8739      12986.635     -4968.507      -61.080207      0.96200822     53036.369    
   6880000   502.07161      12201.661     -382.59051      2822.6073      3174.6774      12959.155     -4979.7004     -60.969976      0.95442008     53458.036    
   6900000   503.5108       12278.369     -372.13411      2821.918       3187.3274      13066.21      -5031.8129     -60.937513      0.94486334     53998.733    
   6920000   499.34214      12064.784     -387.89748      2841.2053      3117.8812      12930.226     -5043.7277     -60.382694      0.96445732     52901.691    
   6940000   505.90538      12265.126     -476.83694      2842.3868      3145.7285      13071.985     -4925.5589     -59.274596      0.950987       53651.021    
   6960000   495.18049      11969.655     -487.7403       2819.2276      2987.4028      13105.351     -5066.8781     -55.746762      0.97150956     52517.675    
   6980000   508.84685      12067.226     -394.10327      2837.3618      3027.5374      13054.738     -5064.0915     -61.24872       0.96350634     52953.905    
   7000000   504.06814      12108.05      -469.76868      2832.7931      3032.8038      13199.758     -5096.404      -57.942826      0.94839065     53797.898    
   7020000   502.47916      12040.826     -454.1365       2820.454       3100.1844      13050.88      -5081.1913     -63.088057      0.95379523     53493.057    
   7040000   489.9125       12320.667     -410.81197      2816.7462      3142.3857      13251.827     -5088.15       -57.881328      0.94966762     53725.558    
   7060000   495.63573      12034.614     -426.43163      2824.1411      3061.3161      13047.933     -5088.1488     -51.630811      0.95648874     53342.419    
   7080000   506.34133      12179.833     -344.77229      2821.0839      3044.8842      13030.609     -4976.3254     -62.968304      0.94247657     54135.482    
   7100000   499.24671      12161.269     -438.574        2818.8578      3075.4206      13131.742     -5037.5485     -55.629981      0.95781398     53268.614    
   7120000   504.45564      12165.396     -442.36928      2819.7954      3189.3283      13061.264     -5073.2618     -56.598786      0.96512311     52865.197    
   7140000   499.1493       12035.996     -467.06549      2842.893       3072.3053      13041.041     -5068.7031     -54.068082      0.95251348     53565.04     
   7160000   504.23266      12286.104     -452.32319      2835.0526      3163.196       13176.394     -5052.7334     -52.035484      0.97661397     52243.184    
   7180000   492.15546      12131.609     -466.54886      2831.1426      3160.5221      13077.123     -5073.6967     -64.135727      0.96463612     52891.885    
   7200000   499.42666      12175.996     -465.45315      2862.436       3175.441       12974.019     -4981.3598     -57.739054      0.96166985     53055.031    
   7200079   504.09711      12254.039     -471.10866      2851.6961      3131.1701      13087.231     -4956.9026     -56.505619      0.95839526     53236.306    
Loop time of 3799.35 on 24 procs for 1200000 steps with 4984 atoms

Performance: 6.822 ns/day, 3.518 hours/ns, 315.844 timesteps/s, 1.574 Matom-step/s
99.5% CPU use with 24 MPI tasks x no OpenMP threads

MPI task timing breakdown:
Section |  min time  |  avg time  |  max time  |%varavg| %total
---------------------------------------------------------------
Pair    | 1683       | 2101       | 2344.2     | 409.4 | 55.30
Bond    | 541.64     | 630.2      | 737.14     | 160.6 | 16.59
Kspace  | 621.07     | 850.74     | 1358.5     | 733.0 | 22.39
Neigh   | 42.011     | 42.062     | 42.102     |   0.4 |  1.11
Comm    | 125.51     | 128.52     | 130.67     |  13.0 |  3.38
Output  | 0.0051511  | 0.005937   | 0.023468   |   4.7 |  0.00
Modify  | 32.082     | 34.016     | 35.858     |  16.6 |  0.90
Other   |            | 12.8       |            |       |  0.34

Nlocal:        207.667 ave         225 max         189 min
Histogram: 1 5 2 1 1 3 4 1 3 3
Nghost:        4676.46 ave        4721 max        4613 min
Histogram: 1 0 4 2 0 3 4 5 3 2
Neighs:        70491.4 ave       84179 max       57741 min
Histogram: 1 3 0 5 4 4 3 1 2 1

Total # of neighbors = 1691793
Ave neighs/atom = 339.44482
Ave special neighs/atom = 5.9574639
Neighbor list builds = 14541
Dangerous builds = 0
PPPM initialization ...
  using 12-bit tables for long-range coulomb (../kspace.cpp:342)
  G vector (1/distance) = 0.11730852
  grid = 4 4 4
  stencil order = 5
  estimated absolute RMS force accuracy = 0.27986916
  estimated relative force accuracy = 0.00084281767
  using double precision KISS FFT
  3d grid and FFT values/proc = 294 4
Generated 28 of 28 mixed pair_coeff terms from sixthpower/sixthpower mixing rule
Setting up Verlet run ...
  Unit style    : real
  Current step  : 7200079
  Time step     : 0.25
WARNING: Inconsistent image flags (../domain.cpp:815)
Per MPI rank memory allocation (min/avg/max) = 22.24 | 22.26 | 22.44 Mbytes
   Step          Temp          PotEng         E_vdwl         E_coul         E_bond        E_angle        E_dihed        E_impro        Density         Volume    
   7200079   504.09711      12254.025     -471.10866      2852.2109      3131.1701      13087.231     -4956.9026     -56.505619      0.95839526     53236.306    
   7220000   483.58354      11803.547     -487.08343      2826.6254      2918.1605      13038.192     -5105.3945     -54.070362      0.94886683     53770.9      
   7240000   484.1498       11802.119     -452.67914      2838.3487      2934.9292      12943.992     -5070.7801     -58.771657      0.96364051     52946.532    
   7260000   481.78355      12005.641     -475.10348      2836.4214      3017.0155      13057.484     -5036.8589     -59.383617      0.97656065     52246.036    
   7280000   469.14927      11849.144     -468.18263      2820.177       2921.952       12982.239     -5014.5938     -58.319053      0.97220744     52479.976    
   7300000   485.20823      11868.989     -422.2786       2831.7844      2961.43        12883.286     -5002.2001     -50.595166      0.96580089     52828.097    
   7320000   475.62185      11780.001     -432.64995      2820.878       2961.902       12844.956     -5022.8966     -58.793961      0.9716718      52508.906    
   7340000   478.75778      11724.658     -516.59724      2827.8808      2877.3583      12962.669     -5040.9519     -52.706677      0.97848213     52143.439    
   7360000   479.78055      11840.858     -422.51619      2823.4117      2942.6571      12770.488     -4878.839      -61.456691      0.96490014     52877.413    
   7380000   485.91666      11907.884     -472.52314      2833.9393      3101.6426      12869.19      -5030.7162     -62.484603      0.98239054     51935.988    
   7400000   480.68722      11572.027     -550.28253      2830.1779      2855.9416      12953.224     -5121.939      -61.665822      0.9756269      52296.04     
   7420000   478.82646      11859.265     -463.07638      2804.3502      3032.2882      12965.962     -5087.7285     -58.758273      0.98342659     51881.273    
   7440000   475.65403      11891.176     -430.65419      2845.0196      2999.9542      12942.626     -5076.385      -56.838141      0.975517       52301.931    
   7460000   477.1946       11841.411     -429.27688      2835.8607      2930.0593      12974.433     -5074.3515     -61.736129      0.97404084     52381.195    
   7480000   484.57809      11732.978     -509.73663      2834.663       3018.602       12847.376     -5065.8985     -59.285891      0.98187818     51963.089    
[...]
  23860000   225.25762      7338.199      -1172.6875      2839.3614      1446.7362      11004.632     -5366.6904     -46.191686      1.0669484      47819.954    
  23880000   219.20824      7450.0672     -1153.6258      2836.0625      1501.4331      11049.554     -5372.1816     -44.341034      1.0671378      47811.465    
  23900000   220.03041      7518.8902     -1136.3464      2836.6544      1531.5457      11058.254     -5358.3308     -46.675559      1.0683983      47755.056    
  23920000   215.01126      7482.1498     -1169.2909      2847.1457      1471.1356      11162.576     -5411.3747     -51.29601       1.0742565      47494.636    
  23940000   221.57168      7463.0104     -1134.8132      2826.3236      1513.8919      11072.006     -5403.4798     -44.340915      1.0662515      47851.207    
  23960000   217.84195      7379.6231     -1120.3795      2843.6884      1394.7253      11103.74      -5423.9781     -51.109382      1.0704313      47664.359    
  23980000   218.42939      7427.5593     -1181.6635      2845.6564      1482.2091      11061.821     -5365.505      -48.550002      1.0646703      47922.275    
  24000000   219.11551      7529.259      -1082.3207      2832.9547      1482.7831      11110.255     -5407.6186     -40.376856      1.0704508      47663.491    
  24000079   226.62803      7445.5563     -1154.1799      2834.177       1511.6791      11037.823     -5371.7807     -46.078144      1.0669461      47820.056    
Loop time of 4085.58 on 24 procs for 1200000 steps with 4984 atoms

Performance: 6.344 ns/day, 3.783 hours/ns, 293.716 timesteps/s, 1.464 Matom-step/s
99.5% CPU use with 24 MPI tasks x no OpenMP threads

MPI task timing breakdown:
Section |  min time  |  avg time  |  max time  |%varavg| %total
---------------------------------------------------------------
Pair    | 2026.4     | 2324.5     | 2706.6     | 391.4 | 56.89
Bond    | 515.7      | 624.47     | 778.78     | 217.3 | 15.28
Kspace  | 477.72     | 926.44     | 1327.5     | 733.5 | 22.68
Neigh   | 24.34      | 24.377     | 24.408     |   0.4 |  0.60
Comm    | 133.01     | 136.2      | 138.6      |  13.1 |  3.33
Output  | 0.0029642  | 0.0032978  | 0.010469   |   2.6 |  0.00
Modify  | 33.944     | 35.882     | 37.425     |  17.2 |  0.88
Other   |            | 13.73      |            |       |  0.34

Nlocal:        207.667 ave         232 max         190 min
Histogram: 2 3 2 3 6 2 4 1 0 1
Nghost:        5039.71 ave        5075 max        5020 min
Histogram: 4 5 2 2 3 4 2 1 0 1
Neighs:        78402.2 ave       88632 max       69024 min
Histogram: 4 0 3 4 2 2 1 5 2 1

Total # of neighbors = 1881652
Ave neighs/atom = 377.53852
Ave special neighs/atom = 5.9574639
Neighbor list builds = 8000
Dangerous builds = 0
PPPM initialization ...
  using 12-bit tables for long-range coulomb (../kspace.cpp:342)
  G vector (1/distance) = 0.12036084
  grid = 4 4 4
  stencil order = 5
  estimated absolute RMS force accuracy = 0.27463655
  estimated relative force accuracy = 0.00082705982
  using double precision KISS FFT
  3d grid and FFT values/proc = 294 4
Generated 28 of 28 mixed pair_coeff terms from sixthpower/sixthpower mixing rule
Setting up Verlet run ...
  Unit style    : real
  Current step  : 24000079
  Time step     : 0.25
WARNING: Inconsistent image flags (../domain.cpp:815)
Per MPI rank memory allocation (min/avg/max) = 22.24 | 22.29 | 22.63 Mbytes
   Step          Temp          PotEng         E_vdwl         E_coul         E_bond        E_angle        E_dihed        E_impro        Density         Volume    
  24000079   226.62803      7445.5817     -1154.1799      2834.737       1511.6791      11037.823     -5371.7807     -46.078144      1.0669461      47820.056    
  24020000   201.08349      7199.2301     -1194.2464      2835.9916      1420.5046      10968.167     -5418.7234     -45.549572      1.0721785      47586.689    
  24040000   199.31845      7204.8074     -1173.7839      2846.1182      1388.5763      10967.148     -5408.257      -47.427307      1.0706594      47654.205    
  24060000   201.12049      7077.881      -1166.3271      2842.8161      1322.8486      10860.119     -5370.2551     -44.449598      1.0715068      47616.516    
  24080000   200.24297      7134.4379     -1168.6983      2810.1267      1393.7604      10936.786     -5421.1605     -48.436305      1.0683513      47757.158    
  24100000   201.04183      7159.5438     -1138.0209      2841.9881      1359.0019      10933.332     -5426.0589     -43.959137      1.0654496      47887.223    
  24120000   202.91545      7159.9826     -1198.9591      2826.0028      1396.8352      10963.384     -5415.3539     -44.939128      1.0708847      47644.179    
  24140000   199.1108       7116.1475     -1187.166       2835.6528      1377.5366      10929.404     -5426.9081     -45.145225      1.0695454      47703.839    
  24160000   200.63225      7114.8496     -1116.7537      2848.217       1379.1296      10831.964     -5416.9255     -43.969451      1.0597324      48145.573    
  24180000   199.38956      7154.1282     -1149.9184      2843.2808      1365.8981      10906.17      -5400.0379     -43.584715      1.0716125      47611.82     
  24200000   198.44651      7109.0225     -1185.0421      2836.31        1332.0753      10928.962     -5387.4638     -49.374267      1.0713865      47621.864    
  24220000   200.79558      7151.4726     -1150.6797      2825.5226      1355.7895      10977.94      -5450.3982     -38.725653      1.0719218      47598.082    
  24240000   204.51007      7123.4841     -1138.123       2828.0963      1352.5172      10881.846     -5385.7248     -47.16815       1.0671984      47808.75     
  24260000   198.80391      7096.9599     -1162.0674      2841.9091      1337.6092      10866.567     -5373.6452     -45.54455       1.0723871      47577.43     
  24280000   201.97703      7118.0147     -1179.4928      2833.5595      1382.7708      10954.966     -5461.4558     -45.408804      1.0699039      47687.857    
  24300000   204.15605      7140.9047     -1160.8488      2840.1407      1370.2909      10871.115     -5365.3673     -47.164319      1.0674167      47798.972    
  24320000   195.97696      7168.076      -1149.4814      2832.6394      1423.4203      10877.034     -5398.886      -49.188711      1.0653309      47892.557    
  24340000   203.19795      7148.9119     -1137.4103      2852.0948      1395.0143      10830.169     -5377.7126     -45.881629      1.0686916      47741.951    
  24360000   198.87377      7103.9147     -1175.4115      2837.2451      1355.7835      10937.678     -5436.109      -48.401419      1.0682988      47759.508    
  24380000   204.66194      7150.5843     -1164.8246      2840.687       1360.555       10891.009     -5365.0131     -44.129087      1.0663809      47845.401    
  24400000   201.97031      7134.0938     -1143.1303      2833.0179      1319.9537      10956.222     -5415.3102     -49.124741      1.0692385      47717.531    
  24420000   199.41054      7196.7805     -1162.1951      2846.8064      1354.1761      10982.774     -5408.6336     -48.977916      1.0670565      47815.109    
  24440000   198.25875      7185.3756     -1165.1808      2847.3595      1378.5551      10891.597     -5347.5352     -52.086218      1.0692164      47718.518    
  24460000   198.43155      7120.1902     -1183.1454      2856.2003      1342.5391      10879.184     -5357.8518     -49.115413      1.0704536      47663.366    
  24480000   202.99693      7127.2736     -1200.1688      2833.2386      1392.265       10903.672     -5390.0535     -43.828354      1.0616084      48060.491    
  24500000   202.61161      7174.5058     -1137.6631      2826.5105      1399.2969      10926.246     -5422.671      -49.724588      1.06501        47906.988    
  24520000   197.89972      7140.827      -1177.7302      2839.0271      1360.9987      10906.885     -5373.9474     -46.613042      1.0660329      47861.021    
  24540000   196.96693      7193.6485     -1136.9782      2860.7988      1397.8218      10876.506     -5391.7683     -45.894738      1.0683808      47755.838    
  24560000   200.7653       7095.4834     -1148.426       2840.8051      1328.058       10892.828     -5404.2307     -45.956945      1.0657808      47872.342    
  24580000   201.09049      7187.0859     -1181.6968      2868.2013      1366.2656      10947.831     -5398.2657     -47.208107      1.0687561      47739.071    
  24600000   198.4936       7190.7267     -1159.8708      2842.4958      1386.8008      10931.636     -5395.7561     -46.834586      1.0682457      47761.881    
  24620000   200.63164      7240.1742     -1135.4379      2860.8671      1389.8059      10910.825     -5368.8614     -49.170165      1.0676889      47786.788    
  24640000   203.89014      7175.8093     -1154.3427      2839.1818      1363.472       10956.707     -5414.752      -47.725758      1.0650153      47906.753    
  24660000   198.45632      7173.1104     -1158.0968      2856.3559      1365.6297      10925.763     -5403.2143     -45.970279      1.068826       47735.948    
  24680000   199.17006      7157.2888     -1152.509       2843.6622      1402.9905      10867.805     -5385.0776     -51.649731      1.0667247      47829.983    
  24700000   201.41753      7164.1965     -1152.8517      2858.821       1347.331       10917.965     -5390.8704     -48.265918      1.0668341      47825.076    
  24720000   199.24233      7152.9023     -1176.496       2852.0349      1363.0184      10895.043     -5368.3446     -44.852878      1.060003       48133.28     
  24740000   201.15911      7218.8757     -1185.6439      2860.0267      1381.1504      10986.431     -5406.7637     -49.218033      1.0708086      47647.567    
  24760000   198.22713      7136.3337     -1204.5727      2847.3503      1365.1846      10953.799     -5410.588      -47.286427      1.0727628      47560.767    
  24780000   202.08652      7134.0691     -1155.592       2839.8336      1357.5191      10951.465     -5442.0631     -50.243793      1.0652336      47896.932    
  24800000   200.9523       7138.2463     -1148.3514      2837.7742      1394.9081      10858.964     -5396.1408     -41.136723      1.0649707      47908.757    
  24820000   199.59335      7170.9807     -1159.9857      2838.5755      1389.6122      10982.991     -5462.8866     -49.706517      1.0665227      47839.041    
  24840000   195.46482      7140.3422     -1163.4325      2845.8406      1361.6977      10859.483     -5345.6877     -50.734102      1.0614922      48065.752    
  24860000   196.89065      7131.5472     -1166.7252      2828.2959      1354.9457      10915.298     -5385.9888     -46.826506      1.065383       47890.217    
  24880000   199.59118      7131.8136     -1173.0034      2821.8142      1353.1464      10947.595     -5402.0566     -47.582062      1.0731257      47544.683    
  24900000   199.25107      7056.3156     -1198.3343      2848.9191      1332.214       10882.585     -5388.1673     -53.287265      1.0717291      47606.644    
  24920000   201.26212      7205.3039     -1159.3808      2830.3858      1390.7605      10992.761     -5437.7027     -44.846152      1.0689373      47730.979    
  24940000   197.88641      7075.3913     -1081.3054      2817.1735      1307.2326      10832.226     -5389.5987     -43.408084      1.0624457      48022.615    
  24960000   204.15316      7134.869      -1209.6928      2837.3981      1370.9054      10925.351     -5377.0767     -44.757183      1.0690005      47728.157    
  24980000   203.99988      7186.4349     -1137.5633      2824.3523      1345.7187      10947.132     -5380.185      -46.13418       1.0603229      48118.758    
  25000000   201.18571      7103.7911     -1167.7384      2826.9067      1383.2389      10895.834     -5423.7029     -43.85722       1.0685889      47746.54     
  25020000   199.33927      7076.207      -1131.7999      2842.299       1334.1216      10842.33      -5394.6544     -49.747275      1.0679632      47774.515    
  25040000   199.86196      7130.8822     -1161.1768      2813.8519      1369.028       10938.785     -5416.0106     -46.62988       1.0733436      47535.034    
  25060000   200.62465      7183.5726     -1161.9908      2828.2683      1393.2366      10895.088     -5353.5374     -50.089901      1.0684679      47751.945    
  25080000   199.49706      7155.5119     -1140.5977      2831.7163      1361.1898      10893.442     -5371.5891     -51.441137      1.0655234      47883.909    
  25100000   201.92266      7097.5574     -1138.0122      2847.0816      1320.6312      10921.314     -5442.9082     -43.376092      1.062025       48041.639    
  25120000   201.77396      7127.448      -1164.1407      2829.5033      1345.5277      10918.639     -5385.2247     -49.350579      1.0666773      47832.105    
  25140000   200.32248      7164.7382     -1151.456       2831.4209      1350.2746      10893.842     -5350.5116     -42.520247      1.0673106      47803.727    
  25160000   201.80299      7126.4725     -1172.8701      2826.302       1385.2231      10917.768     -5413.7446     -48.896535      1.0638774      47957.991    
  25180000   197.46054      7153.7339     -1192.1497      2837.6706      1362.6957      10983.292     -5427.823      -42.328315      1.063678       47966.981    
  25200000   198.03161      7134.7899     -1142.9009      2828.6289      1403.8301      10887.063     -5431.263      -43.483745      1.0633113      47983.524    
  25200079   201.17677      7109.3769     -1121.4834      2830.1241      1329.1135      10869.98      -5388.1367     -43.690157      1.066287       47849.616    
Loop time of 4072.07 on 24 procs for 1200000 steps with 4984 atoms

Performance: 6.365 ns/day, 3.770 hours/ns, 294.690 timesteps/s, 1.469 Matom-step/s
99.5% CPU use with 24 MPI tasks x no OpenMP threads

MPI task timing breakdown:
Section |  min time  |  avg time  |  max time  |%varavg| %total
---------------------------------------------------------------
Pair    | 2020       | 2330.7     | 2690.9     | 381.7 | 57.24
Bond    | 522.69     | 623.94     | 779.83     | 214.8 | 15.32
Kspace  | 490.72     | 909.07     | 1259.7     | 713.1 | 22.32
Neigh   | 22.222     | 22.247     | 22.273     |   0.3 |  0.55
Comm    | 132.78     | 136.1      | 138.63     |  13.4 |  3.34
Output  | 0.0036197  | 0.0041896  | 0.016872   |   4.1 |  0.00
Modify  | 34.319     | 36.422     | 38.123     |  17.7 |  0.89
Other   |            | 13.55      |            |       |  0.33

Nlocal:        207.667 ave         230 max         186 min
Histogram: 1 0 4 3 5 4 2 3 1 1
Nghost:        5035.29 ave        5065 max        5016 min
Histogram: 4 1 5 4 2 4 1 0 0 3
Neighs:        78273.5 ave       88169 max       68409 min
Histogram: 3 1 3 3 1 2 6 1 1 3

Total # of neighbors = 1878564
Ave neighs/atom = 376.91894
Ave special neighs/atom = 5.9574639
Neighbor list builds = 7306
Dangerous builds = 0
PPPM initialization ...
  using 12-bit tables for long-range coulomb (../kspace.cpp:342)
  G vector (1/distance) = 0.12034315
  grid = 4 4 4
  stencil order = 5
  estimated absolute RMS force accuracy = 0.27466865
  estimated relative force accuracy = 0.0008271565
  using double precision KISS FFT
  3d grid and FFT values/proc = 294 4
Generated 28 of 28 mixed pair_coeff terms from sixthpower/sixthpower mixing rule
Setting up Verlet run ...
  Unit style    : real
  Current step  : 25200079
  Time step     : 0.25
WARNING: Inconsistent image flags (../domain.cpp:815)
Per MPI rank memory allocation (min/avg/max) = 22.24 | 22.29 | 22.63 Mbytes
   Step          Temp          PotEng         E_vdwl         E_coul         E_bond        E_angle        E_dihed        E_impro        Density         Volume    
  25200079   201.17677      7109.3641     -1121.4834      2829.911       1329.1135      10869.98      -5388.1367     -43.690157      1.066287       47849.616    
  25220000   181.81746      6826.0304     -1207.4409      2830.8315      1289.1877      10773.801     -5446.846      -46.061381      1.0687872      47737.682    
  25240000   179.52008      6862.5441     -1192.2717      2842.8033      1286.7268      10757.571     -5423.8821     -40.919845      1.0723785      47577.814    
  25260000   178.98957      6823.9531     -1244.4904      2831.9485      1267.7301      10810.464     -5426.9975     -47.658109      1.0678849      47778.017    
  25280000   181.90374      6896.6651     -1142.6775      2834.3701      1267.7478      10772.208     -5423          -45.128191      1.0693144      47714.144    
  25300000   178.67734      6879.5816     -1233.826       2851.5244      1284.5941      10818.504     -5430.106      -44.035902      1.0693447      47712.792    
  25320000   177.22589      6755.5541     -1184.8927      2837.5257      1234.5819      10770.578     -5489.7931     -45.319767      1.0723303      47579.953    
  25340000   178.07504      6831.8424     -1182.0356      2834.9081      1230.7162      10741.746     -5380.7436     -46.040355      1.0722569      47583.206    
  25360000   175.42141      6803.501      -1223.1571      2838.2957      1241.4104      10741.539     -5383.4318     -43.42145       1.0736392      47521.943    
  25380000   180.85059      6802.6407     -1191.2029      2824.4367      1238.7485      10795.91      -5447.5535     -50.035177      1.0686823      47742.367    
  25400000   180.4688       6826.2216     -1204.2287      2822.0983      1270.3041      10818.277     -5466.3296     -46.293471      1.0694834      47706.608    
  25420000   182.31598      6830.4322     -1191.3755      2828.724       1279.6839      10739.128     -5415.4864     -42.76516       1.0679094      47776.923    
  25440000   180.37966      6870.0245     -1181.0686      2832.6068      1283.8109      10747.902     -5402.6164     -43.177592      1.0759519      47419.8      
  25460000   176.53772      6846.7058     -1201.0505      2843.782       1229.0892      10831.417     -5444.3547     -45.292447      1.0783109      47316.06     
  25480000   180.76266      6865.376      -1244.2251      2846.8804      1295.0981      10810.41      -5433.8423     -41.849898      1.0683857      47755.623    
  25500000   181.37301      6846.2483     -1212.0889      2849.368       1262.9246      10809.365     -5453.7159     -42.439581      1.0720266      47593.429    
  25520000   177.87752      6851.7245     -1223.6685      2844.7748      1249.8483      10836.156     -5445.6369     -43.030311      1.0699141      47687.4      
  25540000   178.66912      6834.6269     -1188.0142      2841.0981      1281.7897      10766.017     -5460.2449     -39.887959      1.0674243      47798.632    
  25560000   180.01115      6844.0299     -1230.6262      2843.4623      1268.5972      10809.234     -5435.9577     -44.550704      1.0730083      47549.886    
  25580000   179.57887      6816.2865     -1207.2466      2833.1285      1269.714       10780.99      -5455.4944     -37.747229      1.0702064      47674.378    
  25600000   183.45         6853.2206     -1199.6497      2834.3765      1247.1714      10835.533     -5449.7        -47.176328      1.0692364      47717.629    
  25620000   180.25348      6805.7443     -1239.3344      2815.7272      1238.8755      10850.605     -5448.607      -45.33524       1.0691801      47720.139    
  25640000   176.92151      6734.4343     -1224.4605      2836.073       1250.8484      10762.003     -5476.7414     -46.103058      1.0772281      47363.62     
  25660000   177.85526      6885.5763     -1221.0147      2851.8283      1250.6475      10857.973     -5442.7344     -44.326819      1.076417       47399.31     
  25680000   181.129        6842.7837     -1225.4806      2840.5582      1258.0281      10801.869     -5419.8256     -45.862024      1.0682329      47762.451    
  25700000   181.25932      6832.764      -1199.8105      2855.0594      1216.1145      10756.196     -5385.7383     -42.742292      1.0749622      47463.457    
