LAMMPS output created by EMC v9.4.4, build Jul 27 2022 18:02:20

          74  atoms
          85  bonds
         186  angles
         345  dihedrals
         120  impropers

           8  atom types
          14  bond types
          33  angle types
          61  dihedral types
          33  improper types

             0    20.17642763  xlo xhi
             0    20.17642763  ylo yhi
             0    20.17642763  zlo zhi

Masses

       1   12.01115  # c
       2   12.01115  # c1
       3   12.01115  # c3h
       4    1.00797  # h
       5    1.00797  # hc
       6   15.99940  # o3e
       7   15.99940  # oc
       8   15.99940  # oh

Atoms

       1       1   8 -0.5571  15.2350743346   1.5332064324  18.7689080449  # oh
       2       1   4  0.4241  15.8532122636   2.2260954540  18.9067442479  # h
       3       1   2  0.0800  15.0703753508   1.1919096498  17.3823537801  # c1
       4       1   5  0.0530  14.9219787318   2.1403126240  16.7744103923  # hc
       5       1   2  0.0800  16.2274879907   0.3356137852  16.8136978066  # c1
       6       1   5  0.0530  17.1328061415   0.5893035049  17.3166256388  # hc
       7       1   7 -0.2660  16.3039649510   0.4317957763  15.3856303173  # oc
       8       1   2  0.0800  17.4322723270   0.7929266609  14.5666562551  # c1
       9       1   5  0.0530  16.9267883924   0.8920463199  13.5519289835  # hc
      10       1   1 -0.1060  17.8816072837   2.2226442223  14.9698195429  # c
      11       1   5  0.0530  17.3361813923   3.0476529113  14.5926354281  # hc
      12       1   5  0.0530  17.7681354485   2.2779982121  16.0969283893  # hc
      13       1   1 -0.1060  19.3584234974   2.3887014690  14.8095450008  # c
      14       1   5  0.0530  19.9057494854   3.1392280910  15.4572891949  # hc
      15       1   5  0.0530  19.7082711825   2.5071192481  13.7160811815  # hc
      16       1   2 -0.0530  19.7835876471   0.9174663218  15.0941376822  # c1
      17       1   5  0.0530  20.8141456818   0.8564143047  14.6705752098  # hc
      18       1   2 -0.0530  19.8891829281  -0.1221342390  16.4288080135  # c1
      19       1   5  0.0530  20.3362851569   0.2934233195  17.2998739671  # hc
      20       1   1 -0.1060  20.7044447718  -1.1441954492  15.5541109522  # c
      21       1   5  0.0530  21.5699569118  -0.7581866608  15.0578810628  # hc
      22       1   5  0.0530  20.9824626250  -2.0804354350  16.0919185974  # hc
      23       1   2 -0.0530  19.3472467703  -1.3852584839  14.6579928519  # c1
      24       1   5  0.0530  19.4002816574  -2.0398365655  13.8295832724  # hc
      25       1   2  0.0800  18.3432893956  -1.8530129598  15.7216505576  # c1
      26       1   5  0.0530  17.4067242877  -2.1407606431  15.3100514327  # hc
      27       1   2  0.0800  18.7346203806  -1.1603581066  16.9574817651  # c1
      28       1   5  0.0530  18.2973441463  -1.0517040270  17.9336425048  # hc
      29       1   6 -0.2660  18.9482652041  -2.6476506529  16.7253800048  # o3e
      30       1   2 -0.0530  18.8076807167   0.0279058813  14.3119022843  # c1
      31       1   5  0.0530  19.0141495336   0.2322479189  13.2360981717  # hc
      32       1   1 -0.1060  15.7543901350  -1.1480670600  17.2182420784  # c
      33       1   5  0.0530  15.9680973960  -1.2256034568  18.3514967466  # hc
      34       1   5  0.0530  16.2032167488  -2.0802032791  16.8350933310  # hc
      35       1   2 -0.0530  14.2972356660  -1.2454694804  16.8209056286  # c1
      36       1   5  0.0530  14.2221278565  -1.3304641396  15.7235006801  # hc
      37       1   2 -0.0530  13.3519502410  -2.2657498363  17.5724662651  # c1
      38       1   5  0.0530  13.6971909745  -3.2694349513  17.4921274045  # hc
      39       1   1 -0.1060  13.3753481730  -1.5725703072  18.9697337527  # c
      40       1   5  0.0530  14.2483941162  -1.3732495754  19.5333443943  # hc
      41       1   5  0.0530  12.5842297869  -2.1157652370  19.6824491518  # hc
      42       1   2 -0.0530  12.8596033868  -0.1651498593  18.3493900920  # c1
      43       1   5  0.0530  12.6552069042   0.6524827985  18.9970465109  # hc
      44       1   2  0.0800  11.5988762063  -0.6825369610  17.6370181950  # c1
      45       1   5  0.0530  10.9931511757   0.0668575658  17.1794554155  # hc
      46       1   2  0.0800  11.9340038816  -1.9855733101  17.0096902787  # c1
      47       1   5  0.0530  11.7113686756  -2.2319183829  15.9692037634  # hc
      48       1   6 -0.2660  10.9768375831  -1.9211217671  18.0555137141  # o3e
      49       1   2 -0.0530  13.8305933715   0.2052419257  17.2304923105  # c1
      50       1   5  0.0530  13.3044073879   0.6220994245  16.3757259159  # hc
      51       2   2 -0.0530  10.3484598288  10.9691378642   4.8518802694  # c1
      52       2   5  0.0530  11.3545198106  10.8327345032   5.3097220881  # hc
      53       2   1 -0.1060   8.9955923075  10.8470151277   5.6760106954  # c
      54       2   5  0.0530   8.8088599950   9.8639638012   6.1582453941  # hc
      55       2   5  0.0530   9.0718107642  11.6376130775   6.4145063307  # hc
      56       2   2 -0.0530   8.1860600466  11.2998950736   4.3503337021  # c1
      57       2   5  0.0530   7.0445757986  11.1634279819   4.3341159515  # hc
      58       2   2  0.0800   8.6364741866  12.7449155329   4.1313790894  # c1
      59       2   5  0.0530   8.1679549920  13.3909017187   3.4327431450  # hc
      60       2   2  0.0800  10.1183049857  12.4888718177   4.1733023715  # c1
      61       2   5  0.0530  10.7630152507  12.8147887020   3.3110958625  # hc
      62       2   6 -0.2660   9.4681665866  13.4184146900   5.1098828615  # o3e
      63       2   2 -0.0530   8.8229862446  10.3635007914   3.2588730191  # c1
      64       2   5  0.0530   8.3145627185   9.3911633424   3.4435197263  # hc
      65       2   3  0.0800   8.9469689061  10.6015783694   1.7330262723  # c3h
      66       2   5  0.0530   8.7066733337  11.6047558725   1.3284478766  # hc
      67       2   6 -0.2660   8.7537302023   9.4045124531   0.9936466515  # o3e
      68       2   3  0.0800  10.1483142893   9.6360797239   1.4080895657  # c3h
      69       2   5  0.0530  10.9551553064   9.7872600122   0.6370208776  # hc
      70       2   1 -0.1060  10.5406963870   8.8646513649   2.6918001865  # c
      71       2   5  0.0530   9.7694230203   8.0286320078   2.6846806027  # hc
      72       2   5  0.0530  11.5605270172   8.4578557902   2.6275958836  # hc
      73       2   2 -0.0530  10.3220961857  10.0815615775   3.5821478197  # c1
      74       2   5  0.0530  11.1999211816  10.6549252027   3.1600115717  # hc

Bonds

       1      10       3       1  # c1,oh
       2      14       2       1  # h,oh
       3       5       3       5  # c1,c1
       4       5       3      49  # c1,c1
       5       7       3       4  # c1,hc
       6       2      32       5  # c,c1
       7       9       5       7  # c1,oc
       8       7       5       6  # c1,hc
       9       9       8       7  # c1,oc
      10       2      10       8  # c,c1
      11       5       8      30  # c1,c1
      12       7       8       9  # c1,hc
      13       1      10      13  # c,c
      14       4      10      11  # c,hc
      15       4      10      12  # c,hc
      16       2      13      16  # c,c1
      17       4      13      14  # c,hc
      18       4      13      15  # c,hc
      19       5      16      18  # c1,c1
      20       5      16      30  # c1,c1
      21       7      16      17  # c1,hc
      22       2      20      18  # c,c1
      23       5      18      27  # c1,c1
      24       7      18      19  # c1,hc
      25       2      20      23  # c,c1
      26       4      20      21  # c,hc
      27       4      20      22  # c,hc
      28       5      23      30  # c1,c1
      29       5      23      25  # c1,c1
      30       7      23      24  # c1,hc
      31       5      25      27  # c1,c1
      32       8      25      29  # c1,o3e
      33       7      25      26  # c1,hc
      34       8      27      29  # c1,o3e
      35       7      27      28  # c1,hc
      36       7      30      31  # c1,hc
      37       2      32      35  # c,c1
      38       4      32      33  # c,hc
      39       4      32      34  # c,hc
      40       5      35      37  # c1,c1
      41       5      35      49  # c1,c1
      42       7      35      36  # c1,hc
      43       2      39      37  # c,c1
      44       5      37      46  # c1,c1
      45       7      37      38  # c1,hc
      46       2      39      42  # c,c1
      47       4      39      40  # c,hc
      48       4      39      41  # c,hc
      49       5      42      49  # c1,c1
      50       5      42      44  # c1,c1
      51       7      42      43  # c1,hc
      52       5      44      46  # c1,c1
      53       8      44      48  # c1,o3e
      54       7      44      45  # c1,hc
      55       8      46      48  # c1,o3e
      56       7      46      47  # c1,hc
      57       7      49      50  # c1,hc
      58       2      53      51  # c,c1
      59       5      51      60  # c1,c1
      60       5      51      73  # c1,c1
      61       7      51      52  # c1,hc
      62       2      53      56  # c,c1
      63       4      53      54  # c,hc
      64       4      53      55  # c,hc
      65       5      56      63  # c1,c1
      66       5      56      58  # c1,c1
      67       7      56      57  # c1,hc
      68       5      58      60  # c1,c1
      69       8      58      62  # c1,o3e
      70       7      58      59  # c1,hc
      71       8      60      62  # c1,o3e
      72       7      60      61  # c1,hc
      73       6      63      65  # c1,c3h
      74       5      63      73  # c1,c1
      75       7      63      64  # c1,hc
      76      11      65      68  # c3h,c3h
      77      13      65      67  # c3h,o3e
      78      12      65      66  # c3h,hc
      79      13      68      67  # c3h,o3e
      80       3      70      68  # c,c3h
      81      12      68      69  # c3h,hc
      82       2      70      73  # c,c1
      83       4      70      71  # c,hc
      84       4      70      72  # c,hc
      85       7      73      74  # c1,hc

Angles

       1      17       5       3       1  # c1,c1,oh
       2      17      49       3       1  # c1,c1,oh
       3      32       4       3       1  # hc,c1,oh
       4      23       3       1       2  # c1,oh,h
       5       3      32       5       3  # c,c1,c1
       6      16       3       5       7  # c1,c1,oc
       7      14       3       5       6  # c1,c1,hc
       8      12       3      49      42  # c1,c1,c1
       9      12       3      49      35  # c1,c1,c1
      10      14       3      49      50  # c1,c1,hc
      11      14       5       3       4  # c1,c1,hc
      12      14      49       3       4  # c1,c1,hc
      13      12       5       3      49  # c1,c1,c1
      14       9       5      32      35  # c1,c,c1
      15      11       5      32      33  # c1,c,hc
      16      11       5      32      34  # c1,c,hc
      17      22       5       7       8  # c1,oc,c1
      18       4      32       5       6  # c,c1,hc
      19      31       6       5       7  # hc,c1,oc
      20       5      32       5       7  # c,c1,oc
      21       5      10       8       7  # c,c1,oc
      22      16      30       8       7  # c1,c1,oc
      23      31       9       8       7  # hc,c1,oc
      24       1      13      10       8  # c,c,c1
      25      11       8      10      11  # c1,c,hc
      26      11       8      10      12  # c1,c,hc
      27      12       8      30      23  # c1,c1,c1
      28      12       8      30      16  # c1,c1,c1
      29      14       8      30      31  # c1,c1,hc
      30       4      10       8       9  # c,c1,hc
      31      14      30       8       9  # c1,c1,hc
      32       3      10       8      30  # c,c1,c1
      33       1      10      13      16  # c,c,c1
      34       2      10      13      14  # c,c,hc
      35       2      10      13      15  # c,c,hc
      36       2      13      10      11  # c,c,hc
      37      29      11      10      12  # hc,c,hc
      38       2      13      10      12  # c,c,hc
      39       3      13      16      18  # c,c1,c1
      40       3      13      16      30  # c,c1,c1
      41       4      13      16      17  # c,c1,hc
      42      11      16      13      14  # c1,c,hc
      43      29      14      13      15  # hc,c,hc
      44      11      16      13      15  # c1,c,hc
      45       3      20      18      16  # c,c1,c1
      46      12      16      18      27  # c1,c1,c1
      47      14      16      18      19  # c1,c1,hc
      48      12      16      30      23  # c1,c1,c1
      49      14      16      30      31  # c1,c1,hc
      50      14      18      16      17  # c1,c1,hc
      51      14      30      16      17  # c1,c1,hc
      52      12      18      16      30  # c1,c1,c1
      53       9      18      20      23  # c1,c,c1
      54      11      18      20      21  # c1,c,hc
      55      11      18      20      22  # c1,c,hc
      56      12      18      27      25  # c1,c1,c1
      57      15      18      27      29  # c1,c1,o3e
      58      14      18      27      28  # c1,c1,hc
      59       4      20      18      19  # c,c1,hc
      60      14      27      18      19  # c1,c1,hc
      61       3      20      18      27  # c,c1,c1
      62       3      20      23      30  # c,c1,c1
      63       3      20      23      25  # c,c1,c1
      64       4      20      23      24  # c,c1,hc
      65      11      23      20      21  # c1,c,hc
      66      29      21      20      22  # hc,c,hc
      67      11      23      20      22  # c1,c,hc
      68      14      23      30      31  # c1,c1,hc
      69      12      23      25      27  # c1,c1,c1
      70      15      23      25      29  # c1,c1,o3e
      71      14      23      25      26  # c1,c1,hc
      72      14      30      23      24  # c1,c1,hc
      73      14      25      23      24  # c1,c1,hc
      74      12      25      23      30  # c1,c1,c1
      75      15      25      27      29  # c1,c1,o3e
      76      14      25      27      28  # c1,c1,hc
      77      21      25      29      27  # c1,o3e,c1
      78      14      27      25      26  # c1,c1,hc
      79      30      26      25      29  # hc,c1,o3e
      80      15      27      25      29  # c1,c1,o3e
      81      30      28      27      29  # hc,c1,o3e
      82       3      32      35      37  # c,c1,c1
      83       3      32      35      49  # c,c1,c1
      84       4      32      35      36  # c,c1,hc
      85      11      35      32      33  # c1,c,hc
      86      29      33      32      34  # hc,c,hc
      87      11      35      32      34  # c1,c,hc
      88       3      39      37      35  # c,c1,c1
      89      12      35      37      46  # c1,c1,c1
      90      14      35      37      38  # c1,c1,hc
      91      12      35      49      42  # c1,c1,c1
      92      14      35      49      50  # c1,c1,hc
      93      14      37      35      36  # c1,c1,hc
      94      14      49      35      36  # c1,c1,hc
      95      12      37      35      49  # c1,c1,c1
      96       9      37      39      42  # c1,c,c1
      97      11      37      39      40  # c1,c,hc
      98      11      37      39      41  # c1,c,hc
      99      12      37      46      44  # c1,c1,c1
     100      15      37      46      48  # c1,c1,o3e
     101      14      37      46      47  # c1,c1,hc
     102       4      39      37      38  # c,c1,hc
     103      14      46      37      38  # c1,c1,hc
     104       3      39      37      46  # c,c1,c1
     105       3      39      42      49  # c,c1,c1
     106       3      39      42      44  # c,c1,c1
     107       4      39      42      43  # c,c1,hc
     108      11      42      39      40  # c1,c,hc
     109      29      40      39      41  # hc,c,hc
     110      11      42      39      41  # c1,c,hc
     111      14      42      49      50  # c1,c1,hc
     112      12      42      44      46  # c1,c1,c1
     113      15      42      44      48  # c1,c1,o3e
     114      14      42      44      45  # c1,c1,hc
     115      14      49      42      43  # c1,c1,hc
     116      14      44      42      43  # c1,c1,hc
     117      12      44      42      49  # c1,c1,c1
     118      15      44      46      48  # c1,c1,o3e
     119      14      44      46      47  # c1,c1,hc
     120      21      44      48      46  # c1,o3e,c1
     121      14      46      44      45  # c1,c1,hc
     122      30      45      44      48  # hc,c1,o3e
     123      15      46      44      48  # c1,c1,o3e
     124      30      47      46      48  # hc,c1,o3e
     125       9      51      53      56  # c1,c,c1
     126      11      51      53      54  # c1,c,hc
     127      11      51      53      55  # c1,c,hc
     128      12      51      60      58  # c1,c1,c1
     129      15      51      60      62  # c1,c1,o3e
     130      14      51      60      61  # c1,c1,hc
     131       3      70      73      51  # c,c1,c1
     132      12      51      73      63  # c1,c1,c1
     133      14      51      73      74  # c1,c1,hc
     134       4      53      51      52  # c,c1,hc
     135      14      60      51      52  # c1,c1,hc
     136      14      73      51      52  # c1,c1,hc
     137       3      53      51      60  # c,c1,c1
     138       3      53      51      73  # c,c1,c1
     139       3      53      56      63  # c,c1,c1
     140       3      53      56      58  # c,c1,c1
     141       4      53      56      57  # c,c1,hc
     142      11      56      53      54  # c1,c,hc
     143      29      54      53      55  # hc,c,hc
     144      11      56      53      55  # c1,c,hc
     145      13      56      63      65  # c1,c1,c3h
     146      12      56      63      73  # c1,c1,c1
     147      14      56      63      64  # c1,c1,hc
     148      12      56      58      60  # c1,c1,c1
     149      15      56      58      62  # c1,c1,o3e
     150      14      56      58      59  # c1,c1,hc
     151      14      63      56      57  # c1,c1,hc
     152      14      58      56      57  # c1,c1,hc
     153      12      58      56      63  # c1,c1,c1
     154      15      58      60      62  # c1,c1,o3e
     155      14      58      60      61  # c1,c1,hc
     156      21      58      62      60  # c1,o3e,c1
     157      14      60      58      59  # c1,c1,hc
     158      30      59      58      62  # hc,c1,o3e
     159      15      60      58      62  # c1,c1,o3e
     160      12      60      51      73  # c1,c1,c1
     161      30      61      60      62  # hc,c1,o3e
     162      18      63      65      68  # c1,c3h,c3h
     163      20      63      65      67  # c1,c3h,o3e
     164      19      63      65      66  # c1,c3h,hc
     165       3      70      73      63  # c,c1,c1
     166      14      63      73      74  # c1,c1,hc
     167      25      65      63      64  # c3h,c1,hc
     168      14      73      63      64  # c1,c1,hc
     169      13      73      63      65  # c1,c1,c3h
     170       6      70      68      65  # c,c3h,c3h
     171      27      65      68      67  # c3h,c3h,o3e
     172      26      65      68      69  # c3h,c3h,hc
     173      28      65      67      68  # c3h,o3e,c3h
     174      26      68      65      66  # c3h,c3h,hc
     175      33      66      65      67  # hc,c3h,o3e
     176      27      68      65      67  # c3h,c3h,o3e
     177       8      70      68      67  # c,c3h,o3e
     178      33      69      68      67  # hc,c3h,o3e
     179      10      73      70      68  # c1,c,c3h
     180      24      68      70      71  # c3h,c,hc
     181      24      68      70      72  # c3h,c,hc
     182       7      70      68      69  # c,c3h,hc
     183       4      70      73      74  # c,c1,hc
     184      11      73      70      71  # c1,c,hc
     185      29      71      70      72  # hc,c,hc
     186      11      73      70      72  # c1,c,hc

Dihedrals

       1       9      32       5       3       1  # c,c1,c1,oh
       2      61       7       5       3       1  # oc,c1,c1,oh
       3      56       6       5       3       1  # hc,c1,c1,oh
       4      30      42      49       3       1  # c1,c1,c1,oh
       5      30      35      49       3       1  # c1,c1,c1,oh
       6      56      50      49       3       1  # hc,c1,c1,oh
       7      36       5       3       1       2  # c1,c1,oh,h
       8      36      49       3       1       2  # c1,c1,oh,h
       9      47       2       1       3       4  # h,oh,c1,hc
      10      17      35      32       5       3  # c1,c,c1,c1
      11      24       3       5      32      33  # c1,c1,c,hc
      12      24       3       5      32      34  # c1,c1,c,hc
      13      35       3       5       7       8  # c1,c1,oc,c1
      14       5      39      42      49       3  # c,c1,c1,c1
      15      25       3      49      42      44  # c1,c1,c1,c1
      16      27       3      49      42      43  # c1,c1,c1,hc
      17       5      32      35      49       3  # c,c1,c1,c1
      18      25       3      49      35      37  # c1,c1,c1,c1
      19      27       3      49      35      36  # c1,c1,c1,hc
      20       7      32       5       3       4  # c,c1,c1,hc
      21      55       4       3       5       7  # hc,c1,c1,oc
      22      53       4       3       5       6  # hc,c1,c1,hc
      23      27      42      49       3       4  # c1,c1,c1,hc
      24      27      35      49       3       4  # c1,c1,c1,hc
      25      53       4       3      49      50  # hc,c1,c1,hc
      26      25       5       3      49      42  # c1,c1,c1,c1
      27      25       5       3      49      35  # c1,c1,c1,c1
      28      27       5       3      49      50  # c1,c1,c1,hc
      29      17       5      32      35      37  # c1,c,c1,c1
      30      17       5      32      35      49  # c1,c,c1,c1
      31      18       5      32      35      36  # c1,c,c1,hc
      32      10      10       8       7       5  # c,c1,oc,c1
      33      35      30       8       7       5  # c1,c1,oc,c1
      34      41       5       7       8       9  # c1,oc,c1,hc
      35      27      49       3       5       6  # c1,c1,c1,hc
      36      18      35      32       5       6  # c1,c,c1,hc
      37      49      33      32       5       6  # hc,c,c1,hc
      38      49      34      32       5       6  # hc,c,c1,hc
      39      41       8       7       5       6  # c1,oc,c1,hc
      40      29      49       3       5       7  # c1,c1,c1,oc
      41      19      35      32       5       7  # c1,c,c1,oc
      42      50      33      32       5       7  # hc,c,c1,oc
      43      50      34      32       5       7  # hc,c,c1,oc
      44       3      13      10       8       7  # c,c,c1,oc
      45      50      11      10       8       7  # hc,c,c1,oc
      46      50      12      10       8       7  # hc,c,c1,oc
      47      29      23      30       8       7  # c1,c1,c1,oc
      48      29      16      30       8       7  # c1,c1,c1,oc
      49      55      31      30       8       7  # hc,c1,c1,oc
      50      10      32       5       7       8  # c,c1,oc,c1
      51      15       8      10      13      16  # c1,c,c,c1
      52      16       8      10      13      14  # c1,c,c,hc
      53      16       8      10      13      15  # c1,c,c,hc
      54       5      20      23      30       8  # c,c1,c1,c1
      55      25       8      30      23      25  # c1,c1,c1,c1
      56      27       8      30      23      24  # c1,c1,c1,hc
      57       5      13      16      30       8  # c,c1,c1,c1
      58      25       8      30      16      18  # c1,c1,c1,c1
      59      27       8      30      16      17  # c1,c1,c1,hc
      60       2      13      10       8       9  # c,c,c1,hc
      61      49      11      10       8       9  # hc,c,c1,hc
      62      49      12      10       8       9  # hc,c,c1,hc
      63      27      23      30       8       9  # c1,c1,c1,hc
      64      27      16      30       8       9  # c1,c1,c1,hc
      65      53       9       8      30      31  # hc,c1,c1,hc
      66       5      10       8      30      23  # c,c1,c1,c1
      67       5      10       8      30      16  # c,c1,c1,c1
      68       7      10       8      30      31  # c,c1,c1,hc
      69       1      10      13      16      18  # c,c,c1,c1
      70       1      10      13      16      30  # c,c,c1,c1
      71       2      10      13      16      17  # c,c,c1,hc
      72      24      30       8      10      11  # c1,c1,c,hc
      73      16      16      13      10      11  # c1,c,c,hc
      74      48      11      10      13      14  # hc,c,c,hc
      75      48      11      10      13      15  # hc,c,c,hc
      76      24      30       8      10      12  # c1,c1,c,hc
      77      16      16      13      10      12  # c1,c,c,hc
      78      48      12      10      13      14  # hc,c,c,hc
      79      48      12      10      13      15  # hc,c,c,hc
      80       1      13      10       8      30  # c,c,c1,c1
      81       4      13      16      18      20  # c,c1,c1,c
      82       5      13      16      18      27  # c,c1,c1,c1
      83       7      13      16      18      19  # c,c1,c1,hc
      84       5      13      16      30      23  # c,c1,c1,c1
      85       7      13      16      30      31  # c,c1,c1,hc
      86      24      18      16      13      14  # c1,c1,c,hc
      87      24      30      16      13      14  # c1,c1,c,hc
      88      49      14      13      16      17  # hc,c,c1,hc
      89      24      18      16      13      15  # c1,c1,c,hc
      90      24      30      16      13      15  # c1,c1,c,hc
      91      49      15      13      16      17  # hc,c,c1,hc
      92      17      23      20      18      16  # c1,c,c1,c1
      93      24      16      18      20      21  # c1,c1,c,hc
      94      24      16      18      20      22  # c1,c1,c,hc
      95      25      16      18      27      25  # c1,c1,c1,c1
      96      28      16      18      27      29  # c1,c1,c1,o3e
      97      27      16      18      27      28  # c1,c1,c1,hc
      98       5      20      23      30      16  # c,c1,c1,c1
      99      25      16      30      23      25  # c1,c1,c1,c1
     100      27      16      30      23      24  # c1,c1,c1,hc
     101       7      20      18      16      17  # c,c1,c1,hc
     102      27      27      18      16      17  # c1,c1,c1,hc
     103      53      17      16      18      19  # hc,c1,c1,hc
     104      27      23      30      16      17  # c1,c1,c1,hc
     105      53      17      16      30      31  # hc,c1,c1,hc
     106      25      18      16      30      23  # c1,c1,c1,c1
     107      27      18      16      30      31  # c1,c1,c1,hc
     108      17      18      20      23      30  # c1,c,c1,c1
     109      17      18      20      23      25  # c1,c,c1,c1
     110      18      18      20      23      24  # c1,c,c1,hc
     111      25      18      27      25      23  # c1,c1,c1,c1
     112      28      18      27      25      29  # c1,c1,c1,o3e
     113      27      18      27      25      26  # c1,c1,c1,hc
     114      34      18      27      29      25  # c1,c1,o3e,c1
     115      27      30      16      18      19  # c1,c1,c1,hc
     116      18      23      20      18      19  # c1,c,c1,hc
     117      49      21      20      18      19  # hc,c,c1,hc
     118      49      22      20      18      19  # hc,c,c1,hc
     119      27      25      27      18      19  # c1,c1,c1,hc
     120      54      19      18      27      29  # hc,c1,c1,o3e
     121      53      19      18      27      28  # hc,c1,c1,hc
     122       5      20      18      16      30  # c,c1,c1,c1
     123       5      20      18      27      25  # c,c1,c1,c1
     124       8      20      18      27      29  # c,c1,c1,o3e
     125       7      20      18      27      28  # c,c1,c1,hc
     126       7      20      23      30      31  # c,c1,c1,hc
     127       5      20      23      25      27  # c,c1,c1,c1
     128       8      20      23      25      29  # c,c1,c1,o3e
     129       7      20      23      25      26  # c,c1,c1,hc
     130      24      27      18      20      21  # c1,c1,c,hc
     131      24      30      23      20      21  # c1,c1,c,hc
     132      24      25      23      20      21  # c1,c1,c,hc
     133      49      21      20      23      24  # hc,c,c1,hc
     134      24      27      18      20      22  # c1,c1,c,hc
     135      24      30      23      20      22  # c1,c1,c,hc
     136      24      25      23      20      22  # c1,c1,c,hc
     137      49      22      20      23      24  # hc,c,c1,hc
     138      17      23      20      18      27  # c1,c,c1,c1
     139      28      23      25      27      29  # c1,c1,c1,o3e
     140      27      23      25      27      28  # c1,c1,c1,hc
     141      34      23      25      29      27  # c1,c1,o3e,c1
     142      53      24      23      30      31  # hc,c1,c1,hc
     143      27      27      25      23      24  # c1,c1,c1,hc
     144      54      24      23      25      29  # hc,c1,c1,o3e
     145      53      24      23      25      26  # hc,c1,c1,hc
     146      27      25      23      30      31  # c1,c1,c1,hc
     147      40      25      29      27      28  # c1,o3e,c1,hc
     148      27      30      23      25      26  # c1,c1,c1,hc
     149      54      26      25      27      29  # hc,c1,c1,o3e
     150      53      26      25      27      28  # hc,c1,c1,hc
     151      40      27      29      25      26  # c1,o3e,c1,hc
     152      25      27      25      23      30  # c1,c1,c1,c1
     153      25      27      18      16      30  # c1,c1,c1,c1
     154      54      28      27      25      29  # hc,c1,c1,o3e
     155      28      30      23      25      29  # c1,c1,c1,o3e
     156       5      32       5       3      49  # c,c1,c1,c1
     157       4      32      35      37      39  # c,c1,c1,c