LAMMPS output created by EMC v9.4.4, build Jul 27 2022 18:02:20

          74  atoms
          85  bonds
         186  angles
         348  dihedrals
         120  impropers

           7  atom types
           9  bond types
          19  angle types
          36  dihedral types
          22  improper types

             0    20.17642763  xlo xhi
             0    20.17642763  ylo yhi
             0    20.17642763  zlo zhi

Masses

       1   12.01115  # c
       2   12.01115  # c1
       3    1.00797  # h
       4    1.00797  # hc
       5   15.99940  # o3e
       6   15.99940  # oc
       7   15.99940  # oh

Atoms

       1       1   7 -0.5571   3.0302919643   0.6774887303  10.5203886631  # oh
       2       1   3  0.4241   2.6394577847  -0.2431536790  10.5793714381  # h
       3       1   2  0.0800   4.1938440791   0.9761810487  11.2252473389  # c1
       4       1   4  0.0530   4.1086345621   0.2646082729  12.1441781281  # hc
       5       1   2  0.0800   4.4657947990   2.4213640790  11.6579096918  # c1
       6       1   4  0.0530   5.1394155594   2.3449793705  12.5007961936  # hc
       7       1   6 -0.2660   3.4806813830   3.3880052969  12.0377974161  # oc
       8       1   2  0.0800   2.0929177599   3.5588247492  11.9393359170  # c1
       9       1   4  0.0530   1.5035718372   2.6336763502  12.0576173547  # hc
      10       1   2  0.0800   1.5478326164   4.6070244310  12.9243300278  # c1
      11       1   4  0.0530   0.4444473580   4.5573268676  12.8259839788  # hc
      12       1   6 -0.2660   1.5143300648   4.5492505309  14.3568619929  # oc
      13       1   2  0.0800   2.7132346459   4.0970344450  14.9949661497  # c1
      14       1   4  0.0530   3.0785411446   3.1555178863  14.5344963260  # hc
      15       1   1 -0.1060   4.0171282312   4.8767336192  14.9206327643  # c
      16       1   4  0.0530   3.7858244475   6.0065022156  14.8792732818  # hc
      17       1   4  0.0530   4.5705892810   4.7892824001  13.9392738270  # hc
      18       1   1 -0.1060   4.7804316806   4.4205673384  16.1057977897  # c
      19       1   4  0.0530   5.0878097283   5.3383666504  16.7377142635  # hc
      20       1   4  0.0530   5.7825269230   4.0424308578  15.8268348922  # hc
      21       1   2 -0.0530   3.8451579579   3.5059025548  16.9044817005  # c1
      22       1   4  0.0530   4.1685631138   3.8034596349  17.9455504916  # hc
      23       1   2 -0.0530   3.7455996208   1.9771278024  17.0095838680  # c1
      24       1   4  0.0530   4.6921322703   1.5295377694  17.3121201983  # hc
      25       1   1 -0.1060   2.6020586489   2.0154794205  18.0046738821  # c
      26       1   4  0.0530   2.8328042067   2.4813986104  18.9552614795  # hc
      27       1   4  0.0530   2.2579668390   1.0161425259  18.4343412716  # hc
      28       1   2 -0.0530   1.6007956554   2.5770153660  16.9313737697  # c1
      29       1   4  0.0530   0.5659935247   2.8040605103  17.2389185373  # hc
      30       1   2  0.0800   1.6244321179   1.2244940429  16.0936326830  # c1
      31       1   4  0.0530   0.6983297612   0.6133449980  16.2690079627  # hc
      32       1   2  0.0800   3.0476267739   0.8059767432  16.0695380617  # c1
      33       1   4  0.0530   3.3024434749  -0.2379065864  16.2570621333  # hc
      34       1   5 -0.2660   2.3325797240   1.0641767496  14.8128524764  # o3e
      35       1   2 -0.0530   2.4157070702   3.9055178827  16.4220909563  # c1
      36       1   4  0.0530   1.9293744806   4.8421900776  16.9101686892  # hc
      37       1   1 -0.1060   2.0037209619   5.9376123968  12.3274050468  # c
      38       1   4  0.0530   3.1118185910   6.1314770645  12.3875535855  # hc
      39       1   4  0.0530   1.5256515980   6.7346322510  12.8207076005  # hc
      40       1   2 -0.0530   1.4029475498   5.7764649650  10.8863670863  # c1
      41       1   4  0.0530   0.3426124850   6.0671674482  11.0951110588  # hc
      42       1   2 -0.0530   1.7465183872   6.3058483643   9.5065520090  # c1
      43       1   4  0.0530   1.9507688215   7.4103304009   9.3308529505  # hc
      44       1   1 -0.1060   2.9170411108   5.3845683829   8.9981247169  # c
      45       1   4  0.0530   3.6727675234   5.5489218862   9.7768996932  # hc
      46       1   4  0.0530   3.3344865422   5.5689979328   8.0063519316  # hc
      47       1   2 -0.0530   2.0632570730   4.0813208440   9.2190955465  # c1
      48       1   4  0.0530   2.4851113920   3.1114344880   8.9036238540  # hc
      49       1   2  0.0800   0.6728263251   4.3663575723   8.5145273285  # c1
      50       1   4  0.0530  -0.1390063783   3.6555169432   8.6066346988  # hc
      51       1   2  0.0800   0.4828031466   5.8135774385   8.6730120661  # c1
      52       1   4  0.0530  -0.5747173637   6.2045125326   8.8423059620  # hc
      53       1   5 -0.2660   0.5605963788   5.1899861494   7.3909946857  # o3e
      54       1   2 -0.0530   1.4983813826   4.1961465549  10.6994576872  # c1
      55       1   4  0.0530   0.4627466559   3.8702951101  10.6968312486  # hc
      56       1   1 -0.1060   5.4528204164   2.9954571862  10.5305210104  # c
      57       1   4  0.0530   5.8346677213   3.9264256957  10.8655936520  # hc
      58       1   4  0.0530   4.7552345250   3.1393825374   9.5937357338  # hc
      59       1   2 -0.0530   6.4038258872   1.8588762396  10.1926813679  # c1
      60       1   4  0.0530   6.6726027212   1.9060570593   9.0889037068  # hc
      61       1   2 -0.0530   7.6580687813   1.4043654719  10.9031261704  # c1
      62       1   4  0.0530   8.6012783588   1.9349797241  10.8459546109  # hc
      63       1   1 -0.1060   7.7976935775   0.0334316820  10.2312289142  # c
      64       1   4  0.0530   8.7853304445  -0.5016748566  10.4118818515  # hc
      65       1   4  0.0530   7.7271400227   0.1024765230   9.1171941244  # hc
      66       1   2 -0.0530   6.5138226540  -0.4940523584  10.9669218638  # c1
      67       1   4  0.0530   6.2034174345  -1.4998117522  10.7087438464  # hc
      68       1   2  0.0800   6.8489648453  -0.2702285662  12.4969417047  # c1
      69       1   4  0.0530   6.1874425073  -0.6033468702  13.2780629825  # hc
      70       1   2  0.0800   7.5063557360   1.0687458643  12.4103242896  # c1
      71       1   4  0.0530   7.4198172214   1.8407252212  13.1316144632  # hc
      72       1   5 -0.2660   8.2790760675  -0.0884561803  12.7855679877  # o3e
      73       1   2 -0.0530   5.4932355731   0.5518267164  10.4179530873  # c1
      74       1   4  0.0530   5.2148499170   0.1526086627   9.4198541968  # hc

Bonds

       1       8       3       1  # c1,oh
       2       9       2       1  # h,oh
       3       4       3       5  # c1,c1
       4       4       3      73  # c1,c1
       5       5       3       4  # c1,hc
       6       2      56       5  # c,c1
       7       7       5       7  # c1,oc
       8       5       5       6  # c1,hc
       9       7       8       7  # c1,oc
      10       4       8      10  # c1,c1
      11       4       8      54  # c1,c1
      12       5       8       9  # c1,hc
      13       2      37      10  # c,c1
      14       7      10      12  # c1,oc
      15       5      10      11  # c1,hc
      16       7      13      12  # c1,oc
      17       2      15      13  # c,c1
      18       4      13      35  # c1,c1
      19       5      13      14  # c1,hc
      20       1      15      18  # c,c
      21       3      15      16  # c,hc
      22       3      15      17  # c,hc
      23       2      18      21  # c,c1
      24       3      18      19  # c,hc
      25       3      18      20  # c,hc
      26       4      21      23  # c1,c1
      27       4      21      35  # c1,c1
      28       5      21      22  # c1,hc
      29       2      25      23  # c,c1
      30       4      23      32  # c1,c1
      31       5      23      24  # c1,hc
      32       2      25      28  # c,c1
      33       3      25      26  # c,hc
      34       3      25      27  # c,hc
      35       4      28      35  # c1,c1
      36       4      28      30  # c1,c1
      37       5      28      29  # c1,hc
      38       4      30      32  # c1,c1
      39       6      30      34  # c1,o3e
      40       5      30      31  # c1,hc
      41       6      32      34  # c1,o3e
      42       5      32      33  # c1,hc
      43       5      35      36  # c1,hc
      44       2      37      40  # c,c1
      45       3      37      38  # c,hc
      46       3      37      39  # c,hc
      47       4      40      42  # c1,c1
      48       4      40      54  # c1,c1
      49       5      40      41  # c1,hc
      50       2      44      42  # c,c1
      51       4      42      51  # c1,c1
      52       5      42      43  # c1,hc
      53       2      44      47  # c,c1
      54       3      44      45  # c,hc
      55       3      44      46  # c,hc
      56       4      47      54  # c1,c1
      57       4      47      49  # c1,c1
      58       5      47      48  # c1,hc
      59       4      49      51  # c1,c1
      60       6      49      53  # c1,o3e
      61       5      49      50  # c1,hc
      62       6      51      53  # c1,o3e
      63       5      51      52  # c1,hc
      64       5      54      55  # c1,hc
      65       2      56      59  # c,c1
      66       3      56      57  # c,hc
      67       3      56      58  # c,hc
      68       4      59      61  # c1,c1
      69       4      59      73  # c1,c1
      70       5      59      60  # c1,hc
      71       2      63      61  # c,c1
      72       4      61      70  # c1,c1
      73       5      61      62  # c1,hc
      74       2      63      66  # c,c1
      75       3      63      64  # c,hc
      76       3      63      65  # c,hc
      77       4      66      73  # c1,c1
      78       4      66      68  # c1,c1
      79       5      66      67  # c1,hc
      80       4      68      70  # c1,c1
      81       6      68      72  # c1,o3e
      82       5      68      69  # c1,hc
      83       6      70      72  # c1,o3e
      84       5      70      71  # c1,hc
      85       5      73      74  # c1,hc

Angles

       1      12       5       3       1  # c1,c1,oh
       2      12      73       3       1  # c1,c1,oh
       3      19       4       3       1  # hc,c1,oh
       4      15       3       1       2  # c1,oh,h
       5       3      56       5       3  # c,c1,c1
       6      11       3       5       7  # c1,c1,oc
       7       9       3       5       6  # c1,c1,hc
       8       8       3      73      66  # c1,c1,c1
       9       8       3      73      59  # c1,c1,c1
      10       9       3      73      74  # c1,c1,hc
      11       9       5       3       4  # c1,c1,hc
      12       9      73       3       4  # c1,c1,hc
      13       8       5       3      73  # c1,c1,c1
      14       6       5      56      59  # c1,c,c1
      15       7       5      56      57  # c1,c,hc
      16       7       5      56      58  # c1,c,hc
      17      14       5       7       8  # c1,oc,c1
      18       4      56       5       6  # c,c1,hc
      19      18       6       5       7  # hc,c1,oc
      20       5      56       5       7  # c,c1,oc
      21      11      10       8       7  # c1,c1,oc
      22      11      54       8       7  # c1,c1,oc
      23      18       9       8       7  # hc,c1,oc
      24       3      37      10       8  # c,c1,c1
      25      11       8      10      12  # c1,c1,oc
      26       9       8      10      11  # c1,c1,hc
      27       8       8      54      47  # c1,c1,c1
      28       8       8      54      40  # c1,c1,c1
      29       9       8      54      55  # c1,c1,hc
      30       9      10       8       9  # c1,c1,hc
      31       9      54       8       9  # c1,c1,hc
      32       8      10       8      54  # c1,c1,c1
      33       6      10      37      40  # c1,c,c1
      34       7      10      37      38  # c1,c,hc
      35       7      10      37      39  # c1,c,hc
      36      14      10      12      13  # c1,oc,c1
      37       4      37      10      11  # c,c1,hc
      38      18      11      10      12  # hc,c1,oc
      39       5      37      10      12  # c,c1,oc
      40       5      15      13      12  # c,c1,oc
      41      11      35      13      12  # c1,c1,oc
      42      18      14      13      12  # hc,c1,oc
      43       1      18      15      13  # c,c,c1
      44       7      13      15      16  # c1,c,hc
      45       7      13      15      17  # c1,c,hc
      46       8      13      35      28  # c1,c1,c1
      47       8      13      35      21  # c1,c1,c1
      48       9      13      35      36  # c1,c1,hc
      49       4      15      13      14  # c,c1,hc
      50       9      35      13      14  # c1,c1,hc
      51       3      15      13      35  # c,c1,c1
      52       1      15      18      21  # c,c,c1
      53       2      15      18      19  # c,c,hc
      54       2      15      18      20  # c,c,hc
      55       2      18      15      16  # c,c,hc
      56      16      16      15      17  # hc,c,hc
      57       2      18      15      17  # c,c,hc
      58       3      18      21      23  # c,c1,c1
      59       3      18      21      35  # c,c1,c1
      60       4      18      21      22  # c,c1,hc
      61       7      21      18      19  # c1,c,hc
      62      16      19      18      20  # hc,c,hc
      63       7      21      18      20  # c1,c,hc
      64       3      25      23      21  # c,c1,c1
      65       8      21      23      32  # c1,c1,c1
      66       9      21      23      24  # c1,c1,hc
      67       8      21      35      28  # c1,c1,c1
      68       9      21      35      36  # c1,c1,hc
      69       9      23      21      22  # c1,c1,hc
      70       9      35      21      22  # c1,c1,hc
      71       8      23      21      35  # c1,c1,c1
      72       6      23      25      28  # c1,c,c1
      73       7      23      25      26  # c1,c,hc
      74       7      23      25      27  # c1,c,hc
      75       8      23      32      30  # c1,c1,c1
      76      10      23      32      34  # c1,c1,o3e
      77       9      23      32      33  # c1,c1,hc
      78       4      25      23      24  # c,c1,hc
      79       9      32      23      24  # c1,c1,hc
      80       3      25      23      32  # c,c1,c1
      81       3      25      28      35  # c,c1,c1
      82       3      25      28      30  # c,c1,c1
      83       4      25      28      29  # c,c1,hc
      84       7      28      25      26  # c1,c,hc
      85      16      26      25      27  # hc,c,hc
      86       7      28      25      27  # c1,c,hc
      87       9      28      35      36  # c1,c1,hc
      88       8      28      30      32  # c1,c1,c1
      89      10      28      30      34  # c1,c1,o3e
      90       9      28      30      31  # c1,c1,hc
      91       9      35      28      29  # c1,c1,hc
      92       9      30      28      29  # c1,c1,hc
      93       8      30      28      35  # c1,c1,c1
      94      10      30      32      34  # c1,c1,o3e
      95       9      30      32      33  # c1,c1,hc
      96      13      30      34      32  # c1,o3e,c1
      97       9      32      30      31  # c1,c1,hc
      98      17      31      30      34  # hc,c1,o3e
      99      10      32      30      34  # c1,c1,o3e
     100      17      33      32      34  # hc,c1,o3e
     101       3      37      40      42  # c,c1,c1
     102       3      37      40      54  # c,c1,c1
     103       4      37      40      41  # c,c1,hc
     104       7      40      37      38  # c1,c,hc
     105      16      38      37      39  # hc,c,hc
     106       7      40      37      39  # c1,c,hc
     107       3      44      42      40  # c,c1,c1
     108       8      40      42      51  # c1,c1,c1
     109       9      40      42      43  # c1,c1,hc
     110       8      40      54      47  # c1,c1,c1
     111       9      40      54      55  # c1,c1,hc
     112       9      42      40      41  # c1,c1,hc
     113       9      54      40      41  # c1,c1,hc
     114       8      42      40      54  # c1,c1,c1
     115       6      42      44      47  # c1,c,c1
     116       7      42      44      45  # c1,c,hc
     117       7      42      44      46  # c1,c,hc
     118       8      42      51      49  # c1,c1,c1
     119      10      42      51      53  # c1,c1,o3e
     120       9      42      51      52  # c1,c1,hc
     121       4      44      42      43  # c,c1,hc
     122       9      51      42      43  # c1,c1,hc
     123       3      44      42      51  # c,c1,c1
     124       3      44      47      54  # c,c1,c1
     125       3      44      47      49  # c,c1,c1
     126       4      44      47      48  # c,c1,hc
     127       7      47      44      45  # c1,c,hc
     128      16      45      44      46  # hc,c,hc
     129       7      47      44      46  # c1,c,hc
     130       9      47      54      55  # c1,c1,hc
     131       8      47      49      51  # c1,c1,c1
     132      10      47      49      53  # c1,c1,o3e
     133       9      47      49      50  # c1,c1,hc
     134       9      54      47      48  # c1,c1,hc
     135       9      49      47      48  # c1,c1,hc
     136       8      49      47      54  # c1,c1,c1
     137      10      49      51      53  # c1,c1,o3e
     138       9      49      51      52  # c1,c1,hc
     139      13      49      53      51  # c1,o3e,c1
     140       9      51      49      50  # c1,c1,hc
     141      17      50      49      53  # hc,c1,o3e
     142      10      51      49      53  # c1,c1,o3e
     143      17      52      51      53  # hc,c1,o3e
     144       3      56      59      61  # c,c1,c1
     145       3      56      59      73  # c,c1,c1
     146       4      56      59      60  # c,c1,hc
     147       7      59      56      57  # c1,c,hc
     148      16      57      56      58  # hc,c,hc
     149       7      59      56      58  # c1,c,hc
     150       3      63      61      59  # c,c1,c1
     151       8      59      61      70  # c1,c1,c1
     152       9      59      61      62  # c1,c1,hc
     153       8      59      73      66  # c1,c1,c1
     154       9      59      73      74  # c1,c1,hc
     155       9      61      59      60  # c1,c1,hc
     156       9      73      59      60  # c1,c1,hc
     157       8      61      59      73  # c1,c1,c1
     158       6      61      63      66  # c1,c,c1
     159       7      61      63      64  # c1,c,hc
     160       7      61      63      65  # c1,c,hc
     161       8      61      70      68  # c1,c1,c1
     162      10      61      70      72  # c1,c1,o3e
     163       9      61      70      71  # c1,c1,hc
     164       4      63      61      62  # c,c1,hc
     165       9      70      61      62  # c1,c1,hc
     166       3      63      61      70  # c,c1,c1
     167       3      63      66      73  # c,c1,c1
     168       3      63      66      68  # c,c1,c1
     169       4      63      66      67  # c,c1,hc
     170       7      66      63      64  # c1,c,hc
     171      16      64      63      65  # hc,c,hc
     172       7      66      63      65  # c1,c,hc
     173       9      66      73      74  # c1,c1,hc
     174       8      66      68      70  # c1,c1,c1
     175      10      66      68      72  # c1,c1,o3e
     176       9      66      68      69  # c1,c1,hc
     177       9      73      66      67  # c1,c1,hc
     178       9      68      66      67  # c1,c1,hc
     179       8      68      66      73  # c1,c1,c1
     180      10      68      70      72  # c1,c1,o3e
     181       9      68      70      71  # c1,c1,hc
     182      13      68      72      70  # c1,o3e,c1
     183       9      70      68      69  # c1,c1,hc
     184      17      69      68      72  # hc,c1,o3e
     185      10      70      68      72  # c1,c1,o3e
     186      17      71      70      72  # hc,c1,o3e

Dihedrals

       1       9      56       5       3       1  # c,c1,c1,oh
       2      36       7       5       3       1  # oc,c1,c1,oh
       3      34       6       5       3       1  # hc,c1,c1,oh
       4      21      66      73       3       1  # c1,c1,c1,oh
       5      21      59      73       3       1  # c1,c1,c1,oh
       6      34      74      73       3       1  # hc,c1,c1,oh
       7      24       5       3       1       2  # c1,c1,oh,h
       8      24      73       3       1       2  # c1,c1,oh,h
       9      27       2       1       3       4  # h,oh,c1,hc
      10      13      59      56       5       3  # c1,c,c1,c1
      11      16       3       5      56      57  # c1,c1,c,hc
      12      16       3       5      56      58  # c1,c1,c,hc
      13      23       3       5       7       8  # c1,c1,oc,c1
      14       5      63      66      73       3  # c,c1,c1,c1
      15      17       3      73      66      68  # c1,c1,c1,c1
      16      18       3      73      66      67  # c1,c1,c1,hc
      17       5      56      59      73       3  # c,c1,c1,c1
      18      17       3      73      59      61  # c1,c1,c1,c1
      19      18       3      73      59      60  # c1,c1,c1,hc
      20       6      56       5       3       4  # c,c1,c1,hc
      21      33       4       3       5       7  # hc,c1,c1,oc
      22      31       4       3       5       6  # hc,c1,c1,hc
      23      18      66      73       3       4  # c1,c1,c1,hc
      24      18      59      73       3       4  # c1,c1,c1,hc
      25      31       4       3      73      74  # hc,c1,c1,hc
      26      17       5       3      73      66  # c1,c1,c1,c1
      27      17       5       3      73      59  # c1,c1,c1,c1
      28      18       5       3      73      74  # c1,c1,c1,hc
      29      13       5      56      59      61  # c1,c,c1,c1
      30      13       5      56      59      73  # c1,c,c1,c1
      31      14       5      56      59      60  # c1,c,c1,hc
      32      23      10       8       7       5  # c1,c1,oc,c1
      33      23      54       8       7       5  # c1,c1,oc,c1
      34      26       5       7       8       9  # c1,oc,c1,hc
      35      18      73       3       5       6  # c1,c1,c1,hc
      36      14      59      56       5       6  # c1,c,c1,hc
      37      29      57      56       5       6  # hc,c,c1,hc
      38      29      58      56       5       6  # hc,c,c1,hc
      39      26       8       7       5       6  # c1,oc,c1,hc
      40      20      73       3       5       7  # c1,c1,c1,oc
      41      15      59      56       5       7  # c1,c,c1,oc
      42      30      57      56       5       7  # hc,c,c1,oc
      43      30      58      56       5       7  # hc,c,c1,oc
      44       8      37      10       8       7  # c,c1,c1,oc
      45      35       7       8      10      12  # oc,c1,c1,oc
      46      33      11      10       8       7  # hc,c1,c1,oc
      47      20      47      54       8       7  # c1,c1,c1,oc
      48      20      40      54       8       7  # c1,c1,c1,oc
      49      33      55      54       8       7  # hc,c1,c1,oc
      50      10      56       5       7       8  # c,c1,oc,c1
      51      13      40      37      10       8  # c1,c,c1,c1
      52      16       8      10      37      38  # c1,c1,c,hc
      53      16       8      10      37      39  # c1,c1,c,hc
      54      23       8      10      12      13  # c1,c1,oc,c1
      55       5      44      47      54       8  # c,c1,c1,c1
      56      17       8      54      47      49  # c1,c1,c1,c1
      57      18       8      54      47      48  # c1,c1,c1,hc
      58       5      37      40      54       8  # c,c1,c1,c1
      59      17       8      54      40      42  # c1,c1,c1,c1
      60      18       8      54      40      41  # c1,c1,c1,hc
      61       6      37      10       8       9  # c,c1,c1,hc
      62      33       9       8      10      12  # hc,c1,c1,oc
      63      31       9       8      10      11  # hc,c1,c1,hc
      64      18      47      54       8       9  # c1,c1,c1,hc
      65      18      40      54       8       9  # c1,c1,c1,hc
      66      31       9       8      54      55  # hc,c1,c1,hc
      67      17      10       8      54      47  # c1,c1,c1,c1
      68      17      10       8      54      40  # c1,c1,c1,c1
      69      18      10       8      54      55  # c1,c1,c1,hc
      70      13      10      37      40      42  # c1,c,c1,c1
      71      13      10      37      40      54  # c1,c,c1,c1
      72      14      10      37      40      41  # c1,c,c1,hc
      73      10      15      13      12      10  # c,c1,oc,c1
      74      23      35      13      12      10  # c1,c1,oc,c1
      75      26      10      12      13      14  # c1,oc,c1,hc
      76      18      54       8      10      11  # c1,c1,c1,hc
      77      14      40      37      10      11  # c1,c,c1,hc
      78      29      38      37      10      11  # hc,c,c1,hc
      79      29      39      37      10      11  # hc,c,c1,hc
      80      26      13      12      10      11  # c1,oc,c1,hc
      81      20      54       8      10      12  # c1,c1,c1,oc
      82      15      40      37      10      12  # c1,c,c1,oc
      83      30      38      37      10      12  # hc,c,c1,oc
      84      30      39      37      10      12  # hc,c,c1,oc
      85       3      18      15      13      12  # c,c,c1,oc
      86      30      16      15      13      12  # hc,c,c1,oc
      87      30      17      15      13      12  # hc,c,c1,oc
      88      20      28      35      13      12  # c1,c1,c1,oc
      89      20      21      35      13      12  # c1,c1,c1,oc
      90      33      36      35      13      12  # hc,c1,c1,oc
      91      10      37      10      12      13  # c,c1,oc,c1
      92      11      13      15      18      21  # c1,c,c,c1
      93      12      13      15      18      19  # c1,c,c,hc
      94      12      13      15      18      20  # c1,c,c,hc
      95       5      25      28      35      13  # c,c1,c1,c1
      96      17      13      35      28      30  # c1,c1,c1,c1
      97      18      13      35      28      29  # c1,c1,c1,hc
      98       5      18      21      35      13  # c,c1,c1,c1
      99      17      13      35      21      23  # c1,c1,c1,c1
     100      18      13      35      21      22  # c1,c1,c1,hc
     101       2      18      15      13      14  # c,c,c1,hc
     102      29      16      15      13      14  # hc,c,c1,hc
     103      29      17      15      13      14  # hc,c,c1,hc
     104      18      28      35      13      14  # c1,c1,c1,hc
     105      18      21      35      13      14  # c1,c1,c1,hc
     106      31      14      13      35      36  # hc,c1,c1,hc
     107       5      15      13      35      28  # c,c1,c1,c1
     108       5      15      13      35      21  # c,c1,c1,c1
     109       6      15      13      35      36  # c,c1,c1,hc
     110       1      15      18      21      23  # c,c,c1,c1
     111       1      15      18      21      35  # c,c,c1,c1
     112       2      15      18      21      22  # c,c,c1,hc
     113      16      35      13      15      16  # c1,c1,c,hc
     114      12      21      18      15      16  # c1,c,c,hc
     115      28      16      15      18      19  # hc,c,c,hc
     116      28      16      15      18      20  # hc,c,c,hc
     117      16      35      13      15      17  # c1,c1,c,hc
     118      12      21      18      15      17  # c1,c,c,hc
     119      28      17      15      18      19  # hc,c,c,hc
     120      28      17      15      18      20  # hc,c,c,hc
     121       1      18      15      13      35  # c,c,c1,c1
     122       4      18      21      23      25  # c,c1,c1,c
     123       5      18      21      23      32  # c,c1,c1,c1
     124       6      18      21      23      24  # c,c1,c1,hc
     125       5      18      21      35      28  # c,c1,c1,c1
     126       6      18      21      35      36  # c,c1,c1,hc
     127      16      23      21      18      19  # c1,c1,c,hc
     128      16      35      21      18      19  # c1,c1,c,hc
     129      29      19      18      21      22  # hc,c,c1,hc
     130      16      23      21      18      20  # c1,c1,c,hc
     131      16      35      21      18      20  # c1,c1,c,hc
     132      29      20      18      21      22  # hc,c,c1,hc
     133      13      28      25      23      21  # c1,c,c1,c1
     134      16      21      23      25      26  # c1,c1,c,hc
     135      16      21      23      25      27  # c1,c1,c,hc
     136      17      21      23      32      30  # c1,c1,c1,c1
     137      19      21      23      32      34  # c1,c1,c1,o3e
     138      18      21      23      32      33  # c1,c1,c1,hc
     139       5      25      28      35      21  # c,c1,c1,c1
     140      17      21      35      28      30  # c1,c1,c1,c1
     141      18      21      35      28      29  # c1,c1,c1,hc
     142       6      25      23      21      22  # c,c1,c1,hc
     143      18      32      23      21      22  # c1,c1,c1,hc
     144      31      22      21      23      24  # hc,c1,c1,hc
     145      18      28      35      21      22  # c1,c1,c1,hc
     146      31      22      21      35      36  # hc,c1,c1,hc
     147      17      23      21      35      28  # c1,c1,c1,c1
     148      18      23      21      35      36  # c1,c1,c1,hc
     149      13      23      25      28      35  # c1,c,c1,c1
     150      13      23      25      28      30  # c1,c,c1,c1
     151      14      23      25      28      29  # c1,c,c1,hc
     152      17      23      32      30      28  # c1,c1,c1,c1
     153      19      23      32      30      34  # c1,c1,c1,o3e
     154      18      23      32      30      31  # c1,c1,c1,hc
     155      22      23      32      34      30  # c1,c1,o3e,c1
     156      18      35      21      23      24  # c1,c1,c1,hc
     157      14      28      25      23      24  # c1,c,c1,hc
     158      29      26      25      23      24  # hc,c,c1,hc
     159      29      27      25      23      24  # hc,c,c1,hc