LAMMPS (22 Dec 2022)
WARNING: Using I/O redirection is unreliable with parallel runs. Better to use the -in switch to read input files. (../lammps.cpp:531)
units           real
atom_style      full
boundary        p p p
dielectric      1
special_bonds   lj/coul 0.0 0.0 1.0

pair_style      hybrid/overlay hbond/dreiding/lj 2 6 6.5 90 lj/cut/coul/long 8.50000  11.5
bond_style      harmonic
angle_style     harmonic
dihedral_style  harmonic
improper_style  none
kspace_style    pppm 0.001

read_data       data.dreiding
Reading data file ...
  orthogonal box = (0 0 0) to (19.99689 19.12816 19.46971)
  3 by 1 by 2 MPI processor grid
  reading atoms ...
  384 atoms
  scanning bonds ...
  4 = max bonds/atom
  scanning angles ...
  6 = max angles/atom
  scanning dihedrals ...
  3 = max dihedrals/atom
  reading bonds ...
  320 bonds
  reading angles ...
  448 angles
  reading dihedrals ...
  192 dihedrals
Finding 1-2 1-3 1-4 neighbors ...
  special bond factors lj:    0        0        1       
  special bond factors coul:  0        0        1       
     4 = max # of 1-2 neighbors
     3 = max # of 1-3 neighbors
     5 = max # of special neighbors
  special bonds CPU = 0.000 seconds
  read_data CPU = 0.027 seconds

pair_coeff      1    1    lj/cut/coul/long        0.015200000256300         2.846421344984478
pair_coeff      1    2    lj/cut/coul/long        0.001232882795416         2.846421344984478
pair_coeff      1    3    lj/cut/coul/long        0.038019995160237         3.159705878878677
pair_coeff      1    4    lj/cut/coul/long        0.038139744011598         2.939787518071103
pair_coeff      2    2    lj/cut/coul/long     9.99999974737875e-05         2.846421344984478
pair_coeff      2    3    lj/cut/coul/long        0.003083828758188         3.159705878878677
pair_coeff      2    4    lj/cut/coul/long        0.003093541672406         2.939787518071103
pair_coeff      3    3    lj/cut/coul/long        0.095100000500679         3.472990412772877
pair_coeff      3    4    lj/cut/coul/long        0.095399530150179         3.253072051965302
pair_coeff      4    4    lj/cut/coul/long        0.095700003206730         3.033153691157727
pair_coeff      4    4    hbond/dreiding/lj  2  i  4.000    2.750000000000000      4
pair_modify     mix arithmetic
neighbor        2.0 multi
neigh_modify    every 2 delay 4 check yes
variable        input index in.ch3oh.box.dreiding
variable        sname index ch3oh.box.dreiding

compute   hb all pair hbond/dreiding/lj
variable    C_hbond equal c_hb[1] #number hbonds
variable    E_hbond equal c_hb[2] #hbond energy
thermo_style    custom etotal ke temp pe ebond eangle edihed eimp evdwl ecoul elong v_E_hbond v_C_hbond press vol

group sub id 1
1 atoms in group sub
group sub2 id 2
1 atoms in group sub2
fix new sub move linear 0.001 0 0
fix new2 sub2 move linear -0.001 0 0


fix      1      all nve

thermo 10

dump 4a all custom 100 dump.pos id type x y z

run 10000

CITE-CITE-CITE-CITE-CITE-CITE-CITE-CITE-CITE-CITE-CITE-CITE-CITE

Your simulation uses code contributions which should be cited:

- neighbor multi command: doi:10.1016/j.cpc.2008.03.005, doi:10.1007/s40571-020-00361-2

@Article{Intveld08,
 author =  {in 't Veld, P. J. and S. J.~Plimpton and G. S. Grest},
 title =   {Accurate and Efficient Methods for Modeling Colloidal
            Mixtures in an Explicit Solvent using Molecular Dynamics},
 journal = {Comput.\ Phys.\ Commut.},
 year =    2008,
 volume =  179,
 pages =   {320--329}
}

@article{Shire2020,
 author = {Shire, Tom and Hanley, Kevin J. and Stratford, Kevin},
 title = {{DEM} Simulations of Polydisperse Media: Efficient Contact
          Detection Applied to Investigate the Quasi-Static Limit},
 journal = {Computational Particle Mechanics},
 year = {2020}
}

CITE-CITE-CITE-CITE-CITE-CITE-CITE-CITE-CITE-CITE-CITE-CITE-CITE

PPPM initialization ...
WARNING: System is not charge neutral, net charge = -0.00064 (../kspace.cpp:327)
  using 12-bit tables for long-range coulomb (../kspace.cpp:342)
  G vector (1/distance) = 0.14207291
  grid = 3 3 3
  stencil order = 5
  estimated absolute RMS force accuracy = 0.154715
  estimated relative force accuracy = 0.00046591962
  using double precision KISS FFT
  3d grid and FFT values/proc = 336 6
Generated 0 of 6 mixed pair_coeff terms from arithmetic mixing rule
WARNING: One or more atoms are time integrated more than once (../modify.cpp:292)
Neighbor list info ...
  update: every = 2 steps, delay = 4 steps, check = yes
  max neighbors/atom: 2000, page size: 100000
  master list distance cutoff = 13.5
  ghost atom cutoff = 13.5
  binsize = 6.75, bins = 3 3 3
  3 neighbor lists, perpetual/occasional/extra = 3 0 0
  (1) pair hbond/dreiding/lj, perpetual, skip from (3)
      attributes: full, newton on, cut 8.5
      pair build: skip
      stencil: none
      bin: none
  (2) pair lj/cut/coul/long, perpetual
      attributes: half, newton on
      pair build: half/multi/newton
      stencil: half/multi/3d
      bin: multi
  (3) neighbor class addition, perpetual
      attributes: full, newton on, cut 8.5
      pair build: full/multi
      stencil: full/multi/3d
      bin: multi
Per MPI rank memory allocation (min/avg/max) = 13.07 | 13.07 | 13.08 Mbytes
    TotEng         KinEng          Temp          PotEng         E_bond        E_angle        E_dihed        E_impro         E_vdwl         E_coul         E_long       v_E_hbond      v_C_hbond        Press          Volume    
 113.7236       0              0              113.7236       0.53567273     1.2818804      1.2324972      0             -125.38132      597.21974     -361.16486     -69.322152      235           -328.84735      7447.2363    
 113.91047      1.585922       1.3891487      112.32455      0.59864027     1.4175034      1.0852403      0             -126.33834      596.74911     -361.1876      -69.945288      240           -426.05265      7447.2363    
 114.08523      3.0489638      2.6706636      111.03626      0.75001561     1.3263282      1.3603889      0             -127.46519      596.24838     -361.18366     -70.09088       237           -544.21024      7447.2363    
 113.94273      4.3957226      3.8503234      109.547        0.82991311     1.2829871      1.7116216      0             -128.53475      595.45195     -361.19472     -69.852508      238           -518.42468      7447.2363    
 114.5394       6.4904952      5.685187       108.04891      1.2034961      1.3631143      1.5337969      0             -129.82429      595.04197     -361.26918     -69.879607      237           -618.57011      7447.2363    
 114.77691      8.1046094      7.0990301      106.6723       1.7014693      1.4130609      1.3590892      0             -130.45754      593.97226     -361.31604     -69.606683      233           -709.71198      7447.2363    
 115.55228      10.34756       9.0636863      105.20472      2.0740246      1.2881968      1.1226082      0             -131.17306      593.25261     -361.35966     -70.126107      238           -754.69085      7447.2363    
 115.79925      11.896318      10.420283      103.90293      2.6665449      1.3090228      1.05588        0             -131.58154      591.85442     -361.40139     -70.551838      240           -798.60571      7447.2363    
 116.09642      13.592967      11.906419      102.50345      3.2915315      1.4619644      1.0175524      0             -131.8798       590.04578     -361.43357     -71.219143      245           -990.2028       7447.2363    
 117.35032      15.94824       13.969462      101.40208      4.1022979      1.4270737      1.0195759      0             -132.54865      588.89781     -361.49603     -72.706103      245           -1112.5065      7447.2363    
 117.68575      17.495805      15.325013      100.18995      4.9099928      1.3332382      1.4640366      0             -132.77225      586.80855     -361.55362     -74.360855      246           -1116.9446      7447.2363    
 118.56963      18.554724      16.252546      100.0149       5.8219988      1.4604488      1.7325923      0             -132.41839      585.03426     -361.61601     -75.75808       244           -1070.425       7447.2363    
 120.00614      19.739432      17.290262      100.26671      6.9793905      1.4631179      1.4175738      0             -131.92401      584.00984     -361.67919     -76.913734      253           -1067.8924      7447.2363    
 120.39793      21.543196      18.870224      98.854732      7.9408937      1.3400705      0.95678949     0             -131.74564      582.08378     -361.72117     -77.894912      251           -893.41443      7447.2363    
 121.36602      23.202097      20.323297      98.163924      9.1998365      1.2388141      0.97807713     0             -132.1026       580.63809     -361.7883      -78.924009      249           -815.71378      7447.2363    
 122.45224      24.144029      21.148359      98.308208      10.591714      1.4001773      1.3433166      0             -132.2282       579.05815     -361.85695     -79.214366      251           -848.18479      7447.2363    
 123.73795      24.875847      21.789376      98.8621        12.165725      1.2805336      1.3421945      0             -131.98362      577.95654     -361.89927     -78.610239      252           -871.81985      7447.2363    
 125.15486      26.321979      23.05608       98.832879      13.830507      1.2306531      1.1904327      0             -132.52044      577.06052     -361.95879     -78.061224      247           -932.17939      7447.2363    
 126.33766      27.903597      24.441459      98.434067      15.606717      1.1964572      1.3793611      0             -133.46214      575.71454     -362.00087     -77.378577      244           -1196.5342      7447.2363    
 128.0611       28.92996       25.340476      99.131141      17.636466      1.2869159      1.6555729      0             -134.18271      574.76726     -362.03237     -76.498063      246           -1493.1504      7447.2363    
 129.68568      29.897276      26.187772      99.788407      19.497205      1.287994       1.6186088      0             -134.38862      573.85384     -362.08062     -75.408674      247           -1631.3513      7447.2363    
 131.75081      30.908447      27.073482      100.84236      21.584751      1.2144743      1.4018168      0             -134.43785      573.18176     -362.10259     -74.923789      247           -1701.3872      7447.2363    
 134.30824      31.843373      27.892407      102.46487      23.899125      1.2245732      1.5627044      0             -134.82845      572.71963     -362.11271     -75.246893      241           -1851.6869      7447.2363    
 137.31725      32.990579      28.897273      104.32667      26.264122      1.3524203      1.7732617      0             -135.67421      572.73179     -362.12071     -75.888386      247           -1860.7289      7447.2363    
 139.73955      34.741223      30.430706      104.99833      28.883093      1.3608144      1.4584032      0             -136.69633      572.10082     -362.10847     -76.955504      244           -1850.0403      7447.2363    
 142.45088      36.114966      31.634002      106.33591      31.628384      1.2701171      1.1964472      0             -137.21077      571.56561     -362.11387     -78.021242      242           -1901.1417      7447.2363    
 146.21362      36.236075      31.740084      109.97754      34.68465       1.4181021      1.25438        0             -137.05382      571.80771     -362.13349     -79.192289      241           -1853.7721      7447.2363    
 148.83748      35.833742      31.387671      113.00373      37.70627       1.4133261      1.4140847      0             -136.51944      571.13212     -362.14262     -80.392337      239           -1762.9712      7447.2363    
 152.46817      35.773849      31.335209      116.69432      40.87342       1.2725693      1.7808092      0             -136.75137      571.66502     -362.14613     -80.892935      239           -1756.2593      7447.2363    
 155.80077      36.766245      32.204473      119.03452      44.350123      1.4062963      2.3960298      0             -138.315        571.32486     -362.12778     -81.604183      232           -2016.0816      7447.2363    
 159.63683      38.305372      33.552633      121.33146      47.742218      1.3421354      3.0243789      0             -139.71905      571.05609     -362.11432     -82.200084      236           -2178.1468      7447.2363    
 163.46417      39.440823      34.547203      124.02335      51.427079      1.2990058      3.5984051      0             -140.55018      570.37438     -362.12534     -82.85374       243           -2174.715       7447.2363    
 167.36263      40.567881      35.534421      126.79475      55.187926      1.371148       3.8719278      0             -141.16522      569.66496     -362.136       -83.591658      244           -2232.4347      7447.2363    
 171.3339       41.956348      36.750614      129.37755      59.227927      1.4261612      3.4286503      0             -141.54724      569.00135     -362.15929     -84.438115      241           -2320.6687      7447.2363    
 176.61539      43.436128      38.046791      133.17926      63.436819      1.3517765      2.5959537      0             -141.44762      569.41852     -362.17619     -85.622527      246           -2258.8996      7447.2363    
 181.11787      43.671563      38.253014      137.44631      67.695651      1.3681521      2.2666643      0             -140.65567      568.96527     -362.19376     -87.126763      250           -2199.5796      7447.2363    
 186.49237      43.393376      38.009343      143.09899      72.348109      1.7028755      2.1938092      0             -139.38373      568.46956     -362.23163     -88.097524      248           -2225.0265      7447.2363    
 190.58312      43.12919       37.777936      147.45393      77.131922      1.3953519      2.1471601      0             -137.66218      566.69253     -362.25086     -88.499787      248           -2331.3112      7447.2363    
 195.36866      42.56565       37.284318      152.80301      82.0405        1.6296706      2.5584852      0             -137.00398      565.84074     -362.2624      -89.371738      246           -2228.0314      7447.2363    
 199.93223      43.616895      38.205129      156.31534      87.291441      1.5601073      2.9835855      0             -137.83361      564.59084     -362.27702     -91.162126      251           -2298.9484      7447.2363    
 205.31643      46.582563      40.802832      158.73386      92.566277      1.5328639      3.1232468      0             -140.09677      563.88531     -362.27706     -93.571505      250           -2428.1655      7447.2363    
 211.63815      48.96231       42.887312      162.67584      98.046852      1.4457227      3.3466695      0             -142.02265      564.1448      -362.28555     -95.314123      245           -2385.0456      7447.2363    
 217.83847      51.09281       44.75347       166.74566      103.61298      1.4762476      3.5722471      0             -143.37988      563.76583     -362.30177     -97.166344      251           -2319.857       7447.2363    
 224.0719       52.365007      45.867819      171.70689      109.63464      1.5236335      3.6839936      0             -144.15109      563.31874     -362.30302     -98.138352      254           -2461.5482      7447.2363    
 230.12157      54.917514      48.103624      175.20406      115.59904      1.5918743      3.2244371      0             -145.46551      562.56432     -362.3101      -98.464237      249           -2634.9622      7447.2363    
 236.28391      57.682951      50.525939      178.60096      121.71431      1.4511559      2.66601        0             -146.70866      561.78337     -362.30522     -98.372925      247           -2848.4529      7447.2363    
 243.56118      58.538747      51.275552      185.02243      128.24661      1.4972166      2.3893718      0             -146.77476      561.97139     -362.3074      -97.594868      250           -3036.1378      7447.2363    
 250.70688      57.819077      50.645175      192.8878       135.09682      1.7927831      2.1062057      0             -145.64769      561.86999     -362.3303      -97.086945      252           -3250.8797      7447.2363    
 257.4629       58.267514      51.037972      199.19539      141.95424      1.5323918      2.1395805      0             -145.66723      561.58527     -362.34887     -96.576823      246           -3261.9233      7447.2363    
 265.05269      60.053425      52.602296      204.99926      148.8313       1.7129171      2.933264       0             -147.68953      561.60442     -362.39311     -97.391967      251           -3444.6159      7447.2363    
 273.23636      60.407573      52.912504      212.82878      156.16995      2.0236254      3.7261362      0             -148.27059      561.61557     -362.4359      -97.777928      249           -3646.2473      7447.2363    
 281.28194      59.491815      52.110368      221.79012      163.65508      1.7707234      4.1070588      0             -147.3047       562.03291     -362.47094     -96.79423       251           -3552.1147      7447.2363    
 288.70648      59.717112      52.307712      228.98937      170.97807      1.7417608      4.2457148      0             -147.05744      561.60161     -362.52034     -96.053336      249           -3408.4445      7447.2363    
 296.17527      59.884144      52.454019      236.29113      178.99781      1.6285051      4.5243393      0             -147.1882       560.87042     -362.54175     -95.807907      241           -3701.1756      7447.2363    
 304.14957      59.102206      51.7691        245.04736      187.13352      1.6799988      4.8286692      0             -146.67945      560.63898     -362.55435     -95.882944      242           -3831.5693      7447.2363    
 313.19196      58.072711      50.867339      255.11925      195.37364      1.372873       4.8333431      0             -145.3542       561.46157     -362.56798     -96.05939       244           -3710.3928      7447.2363    
 321.32856      57.995745      50.799924      263.33282      203.87065      1.7026184      4.6682761      0             -144.92596      560.60653     -362.5893      -96.880589      246           -3824.7741      7447.2363    
 330.39505      59.043467      51.717649      271.35158      212.72138      1.6209556      4.567547       0             -145.48448      560.532       -362.60582     -97.114174      241           -4262.5809      7447.2363    
 339.69486      60.638503      53.114781      279.05636      221.56203      1.791775       3.8182412      0             -145.85113      560.34556     -362.61012     -97.593128      237           -4301.4816      7447.2363    
 349.93024      62.645838      54.873056      287.28441      230.5761       1.7542371      2.635596       0             -145.96522      560.88132     -362.59763     -99.296479      235           -4184.7102      7447.2363    
 360.42833      63.850191      55.927979      296.57814      240.06447      1.8485401      2.1486536      0             -146.24388      561.32827     -362.56791     -101.18703      235           -4234.013       7447.2363    
 370.14087      64.635769      56.616086      305.5051       249.60909      2.2049507      2.1491715      0             -146.91113      560.99708     -362.54405     -103.02128      240           -4285.9722      7447.2363    
 380.30212      64.142404      56.183936      316.15972      259.33946      2.1396792      2.1506279      0             -146.50666      561.57183     -362.53522     -103.15164      236           -4081.7883      7447.2363    
 391.11736      63.222551      55.378213      327.89481      269.47675      2.2524152      2.3524952      0             -146.14482      562.50285     -362.54487     -102.40364      239           -4157.2087      7447.2363    
 401.01082      64.239047      56.268587      336.77177      279.8097       2.3213491      3.0048862      0             -147.92294      562.12098     -362.5622      -102.01429      240           -4577.3824      7447.2363    
 412.41377      65.81459       57.648645      346.59918      290.06598      2.1836297      4.3676541      0             -150.8463       563.40833     -362.5801      -101.24556      238           -4907.8976      7447.2363    
 423.20755      67.441212      59.073444      355.76634      300.52616      2.3768231      5.3257308      0             -153.33198      563.45495     -362.58535     -100.69704      241           -5235.806       7447.2363    
 434.14584      68.267727      59.79741       365.87811      311.74288      2.0570429      5.3058822      0             -153.87434      563.21761     -362.57096     -99.952099      242           -5643.4181      7447.2363    
 444.91925      67.585956      59.200229      377.33329      322.75096      2.0095118      5.2639579      0             -153.22632      563.08832     -362.55313     -98.180026      244           -5757.3956      7447.2363    
 457.84803      68.186042      59.72586       389.66199      333.95924      1.7318729      4.8243514      0             -153.2098       564.89266     -362.53633     -97.448403      243           -5822.1601      7447.2363    
 469.86292      70.377878      61.645743      399.48505      345.63904      1.7866229      4.053298       0             -154.30555      564.84292     -362.53129     -97.9179        246           -6123.3025      7447.2363    
 482.83026      71.049436      62.233978      411.78082      357.36192      1.8347286      4.2930808      0             -154.73048      565.55471     -362.53314     -98.076029      246           -6309.0133      7447.2363    
 495.70927      71.782011      62.875658      423.92726      369.46804      1.7611503      4.0680703      0             -154.33867      565.50448     -362.53582     -98.914782      242           -6300.035       7447.2363    
 508.2108       72.681052      63.663151      435.52975      381.68814      1.8574484      3.1823071      0             -153.2903       564.61985     -362.5277      -99.81745       247           -6230.2638      7447.2363    
 521.44086      73.562864      64.435552      447.87799      394.2452       1.7266943      3.2239151      0             -152.99861      564.18125     -362.50046     -100.9622       251           -6349.873       7447.2363    
 534.45279      75.978461      66.551434      458.47433      406.95254      2.284255       3.8533381      0             -154.63521      562.47553     -362.45613     -104.70499      249           -6434.9767      7447.2363    
 547.60815      77.36521       67.766122      470.24294      419.77169      1.9288053      4.4142581      0             -154.28754      560.82178     -362.40605     -106.48687      244           -6366.3822      7447.2363    
 560.56498      75.928819      66.507951      484.63616      433.29388      1.9521799      4.2961508      0             -151.4304       558.89598     -362.37163     -106.52291      245           -6395.736       7447.2363    
 574.19297      75.524961      66.154202      498.66801      446.70983      2.2410532      3.589205       0             -148.96475      557.42428     -362.33161     -107.65668      248           -6308.582       7447.2363    
 589.0443       76.169841      66.719068      512.87446      460.26423      2.0331149      4.1286451      0             -148.80336      557.5348      -362.28297     -109.18892      253           -6221.1191      7447.2363    
 604.68327      79.971546      70.049077      524.71172      474.094        2.3074068      4.9850662      0             -151.9165       557.46806     -362.22631     -111.68955      251           -6561.8797      7447.2363    
 619.05577      83.481679      73.12369       535.57409      488.19907      2.3960292      5.5313472      0             -154.12843      555.75129     -362.17522     -112.94038      251           -6871.9527      7447.2363    
 634.34773      83.50447       73.143653      550.84326      502.6011       2.1421573      6.3792124      0             -153.68952      555.56815     -362.15783     -113.20941      253           -6910.7143      7447.2363    
 649.65531      84.636454      74.135187      565.01886      517.02934      1.9739242      6.8517855      0             -153.70255      555.01549     -362.14912     -115.03163      256           -6850.3347      7447.2363    
 664.20083      86.827694      76.054548      577.37314      531.99305      2.3903361      7.3239958      0             -155.48751      553.29234     -362.13907     -117.02563      247           -7103.8093      7447.2363    
 679.4846       90.083357      78.906265      589.40124      546.89251      1.8967038      7.2571532      0             -157.2713       552.72723     -362.10106     -117.17311      251           -7387.4928      7447.2363    
 695.03787      90.781223      79.517543      604.25665      562.20727      1.7992147      6.5037527      0             -156.82618      552.61955     -362.04695     -116.56243      254           -7381.6454      7447.2363    
 711.43196      87.701287      76.81975       623.73067      578.01304      2.0740026      5.9866069      0             -153.63054      553.33169     -362.04413     -114.78326      251           -7288.2133      7447.2363    
 727.15417      87.506707      76.649313      639.64746      593.94409      1.8442366      4.913767       0             -152.34474      553.33893     -362.04883     -112.73735      251           -7502.3377      7447.2363    
 743.6406       89.280021      78.202603      654.36058      609.66369      2.0294922      4.4616092      0             -153.95412      554.20619     -362.04627     -110.48521      253           -7883.2798      7447.2363    
 760.74617      88.881127      77.853201      671.86504      625.81687      1.8068686      5.5763804      0             -155.12847      555.82428     -362.03088     -107.63261      247           -8346.7143      7447.2363    
 777.74426      89.44796       78.349705      688.2963       642.24865      2.176172       5.996934       0             -156.51766      556.3854      -361.9932      -106.71094      250           -8650.5394      7447.2363    
 794.48538      89.024298      77.978608      705.46109      658.89886      2.323921       5.8485947      0             -156.45124      556.81065     -361.96969     -104.65027      249           -8963.2746      7447.2363    
 812.06274      87.601065      76.731963      724.46168      675.93991      1.9674577      5.2512225      0             -154.83566      558.08911     -361.95037     -101.38573      253           -9099.3948      7447.2363    
 830.2343       88.38417       77.417905      741.85013      693.20025      2.3878263      4.5399142      0             -154.73193      558.38677     -361.93269     -101.79343      256           -9209.9463      7447.2363    
 847.98838      88.052662      77.127529      759.93572      710.74344      2.5338934      5.4073096      0             -154.78776      557.96201     -361.92317     -102.64821      251           -9340.9941      7447.2363    
 866.84421      88.837257      77.814774      778.00695      728.60654      2.2858605      6.1423641      0             -155.48246      558.37564     -361.92099     -103.41214      246           -9469.1041      7447.2363    
 885.74087      92.488823      81.013273      793.25205      746.38252      2.3878581      5.6937375      0             -157.51995      558.24227     -361.93438     -105.4969       245           -9689.0098      7447.2363    
 905.03136      94.968986      83.18571       810.06238      764.56935      2.0131338      4.9077936      0             -158.3083       558.8116      -361.9312      -106.69546      253           -9877.6409      7447.2363    
 924.94537      95.641508      83.774788      829.30387      782.94063      2.0357675      4.3096071      0             -157.92872      559.86257     -361.91599     -107.85182      251           -9849.7528      7447.2363    
 944.33195      97.013803      84.976816      847.31815      801.75472      2.0764761      3.5304723      0             -157.67387      559.55545     -361.92511     -110.05783      250           -9906.3845      7447.2363    
 963.35451      99.063807      86.772465      864.2907       820.69779      2.1283807      3.6791375      0             -158.06901      557.80469     -361.95028     -112.49327      253           -9874.4995      7447.2363    
 983.79449      100.9447       88.419986      882.84979      839.93613      1.7491592      5.0832791      0             -159.09115      557.14396     -361.97158     -115.40964      254           -9925.6975      7447.2363    
 1004.0741      101.99711      89.341819      902.07694      859.3948       2.2271018      6.3884684      0             -160.07114      556.12358     -361.98588     -118.5034       262           -10038.055      7447.2363    
 1025.1371      101.37242      88.794635      923.76466      878.98263      2.5165298      7.1093754      0             -159.1196       556.25415     -361.97843     -118.67244      265           -10116.698      7447.2363    
 1046.1086      103.3143       90.49558       942.79432      898.89322      2.3240775      6.3105133      0             -158.98805      556.24892     -361.99435     -117.86714      264           -10380.14       7447.2363    
 1067.3589      106.26218      93.077705      961.09667      919.03087      2.5595963      5.097334       0             -159.71997      556.18147     -362.05264     -116.46178      265           -10672.062      7447.2363    
 1088.8964      107.69349      94.33142       981.20295      939.35933      2.3208041      5.7363202      0             -160.65717      556.54912     -362.10545     -114.63343      262           -11008.856      7447.2363    
 1109.8669      111.30429      97.494209      998.56261      960.14721      2.2456619      5.8543976      0             -163.11912      555.5656      -362.13115     -115.6191       264           -11380.456      7447.2363    
 1131.0201      114.1496       99.986492      1016.8705      980.88255      2.5260548      5.4028168      0             -164.4274       554.62567     -362.1392      -116.28446      265           -11542.676      7447.2363    
 1152.9133      115.77344      101.40885      1037.1399      1002.0934      2.309318       5.0349761      0             -164.78207      554.63604     -362.15175     -116.94919      269           -11692.338      7447.2363    
 1174.5853      118.37669      103.6891       1056.2086      1023.4729      2.4809701      5.1018335      0             -165.71097      553.06046     -362.1966      -119.10863      264           -11774.893      7447.2363    
 1196.8514      118.38268      103.69435      1078.4688      1045.2027      2.239948       6.7381334      0             -165.23651      551.74495     -362.22043     -120.507        260           -11768.025      7447.2363    
 1218.8725      118.74695      104.01342      1100.1256      1067.136       2.1936102      7.6952085      0             -164.89638      550.20787     -362.21074     -121.73722      267           -11934.696      7447.2363    
 1242.1779      119.41856      104.60171      1122.7594      1089.164       2.4693819      7.3449923      0             -164.17496      550.14777     -362.19179     -122.56849      264           -12022.891      7447.2363    
 1265.4325      116.09753      101.69273      1149.3349      1111.6999      2.2057147      6.9282856      0             -160.06129      550.7368      -362.1745      -121.7351       268           -11981.813      7447.2363    
 1289.8689      113.65792      99.555811      1176.211       1134.4782      2.3659545      6.7799616      0             -157.1895       551.97993     -362.20361     -120.90133      267           -12052.546      7447.2363    
 1314.2431      115.59364      101.25136      1198.6495      1157.2361      2.509034       6.9542798      0             -157.92803      552.11487     -362.23674     -122.2633       272           -12235.493      7447.2363    
 1337.6187      118.84132      104.09608      1218.7774      1180.4377      2.2643624      7.4445323      0             -159.96446      550.83794     -362.24265     -123.72985      272           -12562.382      7447.2363    
 1362.2855      120.69061      105.71593      1241.5949      1203.8024      2.4219151      7.6987953      0             -160.82689      550.74878     -362.25012     -124.31788      274           -12637.898      7447.2363    
 1386.6154      122.24778      107.07989      1264.3676      1227.3823      2.6046188      6.8200574      0             -160.69207      550.49781     -362.2451      -124.5178       267           -12624.679      7447.2363    
 1410.1614      123.51682      108.19147      1286.6446      1251.3061      2.4391978      5.5686577      0             -160.27691      549.88634     -362.27888     -122.92027      272           -12855.756      7447.2363    
 1435.5267      124.96349      109.45864      1310.5632      1275.4758      2.661888       4.4407673      0             -160.33701      550.65525     -362.33355     -120.51568      272           -13085.526      7447.2363    
 1461.1168      126.50715      110.81078      1334.6097      1299.8725      2.6693557      4.8239927      0             -161.08569      550.70389     -362.37442     -119.27723      276           -13414.414      7447.2363    
 1486.9348      126.94758      111.19656      1359.9872      1324.6126      2.2914081      6.6194873      0             -161.74256      550.61217     -362.4059      -118.21603      278           -13830.57       7447.2363    
 1513.2333      126.84826      111.10956      1386.3851      1349.5497      2.5975117      7.4725945      0             -161.77245      550.94221     -362.40452     -116.76311      279           -14176.932      7447.2363    
 1539.5809      126.59892      110.89116      1412.9819      1374.7356      2.4076942      6.8080136      0             -160.09661      551.54074     -362.41347     -114.68435      281           -14465.76       7447.2363    
 1565.7295      124.11001      108.71106      1441.6195      1400.2424      2.3584294      6.6356379      0             -156.90278      551.72024     -362.43444     -112.59171      280           -14592.4        7447.2363    
 1592.2744      121.97835      106.84389      1470.2961      1426.0293      2.8447012      7.0523841      0             -154.8355       551.64582     -362.44059     -112.01102      284           -14644.487      7447.2363    
 1618.9573      123.32843      108.02645      1495.6289      1451.9905      2.5407608      7.0190657      0             -154.54712      551.07818     -362.4525      -111.88316      292           -14823.404      7447.2363    
 1645.8771      126.9473       111.19632      1518.9298      1478.1386      2.4504261      7.1354659      0             -157.11373      550.76898     -362.44992     -111.83616      291           -15133.725      7447.2363    
 1673.8326      130.46732      114.27959      1543.3652      1504.4639      2.4095063      7.6111323      0             -160.34007      551.66925     -362.44847     -111.63346      289           -15583.865      7447.2363    
 1701.8077      134.1802       117.53179      1567.6275      1531.2528      2.2864799      7.3337911      0             -162.46667      551.67996     -362.45892     -112.06105      292           -15920.975      7447.2363    
 1729.5162      136.04812      119.16795      1593.4681      1558.0998      2.3956076      6.8032122      0             -162.74643      551.37254     -362.4566      -111.96337      293           -16135.433      7447.2363    
 1758.0018      136.93717      119.94669      1621.0646      1585.3702      2.9113795      6.3208983      0             -162.21393      551.13389     -362.45786     -112.19994      292           -16371.545      7447.2363    
 1786.6051      140.20801      122.8117       1646.3971      1612.8539      2.5709342      5.6647834      0             -162.24157      550.00241     -362.45331     -113.66637      287           -16547.255      7447.2363    
 1815.3934      141.33707      123.80068      1674.0563      1640.6338      2.8933389      6.1247962      0             -162.12186      548.95423     -362.42802     -116.3592       291           -16583.26       7447.2363    
 1845.0123      142.46133      124.78544      1702.551       1668.6542      2.7048435      6.512889       0             -161.27593      548.36511     -362.41007     -119.73353      287           -16567.881      7447.2363    
 1874.63        143.57541      125.76129      1731.0546      1697.1441      2.9494157      6.4513033      0             -160.5157       547.4245      -362.39896     -123.50752      285           -16509.444      7447.2363    
 1904.2142      143.43619      125.63935      1760.778       1725.5755      2.9408357      7.0725891      0             -158.56008      546.16277     -362.41359     -126.03089      284           -16433.64       7447.2363    
 1934.7915      144.67053      126.72053      1790.1209      1754.3514      2.5077037      8.328365       0             -157.96564      545.33071     -362.43155     -128.70627      276           -16445.69       7447.2363    
 1964.6297      148.35645      129.94912      1816.2733      1783.497       2.8877638      9.271899       0             -160.48805      543.51442     -362.40977     -131.01979      276           -16799.159      7447.2363    
 1995.4659      154.42271      135.26271      1841.0432      1812.5266      2.7440151      8.8351072      0             -164.19949      543.48299     -362.346       -131.35139      275           -17320.92       7447.2363    
 2025.4428      158.06804      138.45575      1867.3747      1842.1678      2.6693813      6.9722651      0             -165.65092      543.48586     -362.26962     -129.90499      275           -17715.418      7447.2363    
 2056.9759      158.33354      138.6883       1898.6424      1872.0745      2.4551745      5.2161587      0             -163.66271      544.81628     -362.25703     -126.80597      279           -17836.469      7447.2363    
 2088.1652      157.31003      137.79179      1930.8552      1902.1555      2.7736315      5.0762884      0             -161.69848      544.83849     -362.29026     -124.99734      279           -17978.647      7447.2363    
 2120.4303      157.5508       138.00268      1962.8795      1932.4199      2.3334452      6.2245572      0             -161.46733      545.65604     -362.28715     -123.64673      269           -18233.971      7447.2363    
 2152.0266      158.96313      139.23978      1993.0635      1962.8092      2.7788655      7.0720796      0             -163.07281      545.72609     -362.24993     -122.32863      268           -18758.408      7447.2363    
 2184.3683      159.45318      139.66903      2024.9151      1993.4753      2.6034925      7.3181018      0             -163.42342      547.14844     -362.20679     -120.32648      269           -19167.514      7447.2363    
 2217.3555      160.59519      140.66935      2056.7603      2024.4872      2.2769465      7.2686562      0             -163.35848      548.27426     -362.18825     -119.83787      270           -19375.193      7447.2363    
 2250.7826      161.50972      141.4704       2089.2729      2055.9675      2.7202417      8.0101029      0             -164.57864      549.30863     -362.1549      -120.76321      270           -19647.812      7447.2363    
 2283.0971      161.54409      141.50051      2121.553       2087.4787      2.0977628      9.3119826      0             -164.76885      549.54027     -362.10695     -119.38323      271           -20060.443      7447.2363    
 2316.7444      164.50626      144.09515      2152.2381      2119.3489      2.3901967      8.0960083      0             -165.78483      550.24329     -362.05543     -119.35172      268           -20459.565      7447.2363    
 2350.5055      166.48521      145.82856      2184.0203      2151.4892      2.4519634      6.7551757      0             -166.02124      551.34975     -362.00448     -118.36874      272           -20706.521      7447.2363    
 2383.6343      167.72557      146.91502      2215.9087      2183.7791      2.5241467      6.9215604      0             -166.09092      550.76955     -361.99467     -118.16167      274           -20975.039      7447.2363    
 2417.9792      169.5745       148.53454      2248.4047      2216.5955      2.6906925      7.4252973      0             -166.9766       550.67058     -362.00085     -120.71826      275           -21337.573      7447.2363    
 2451.8707      170.05898      148.95891      2281.8118      2249.3453      2.7535366      7.7179872      0             -166.70202      550.68626     -361.98934     -122.20344      274           -21369.919      7447.2363    
 2486.9669      170.74176      149.55698      2316.2252      2282.5346      2.9376101      7.0612777      0             -165.92952      551.59921     -361.97803     -122.87946      275           -21384.688      7447.2363    
 2522.2149      171.16719      149.92962      2351.0477      2315.973       3.0989902      6.9471273      0             -164.87869      551.87655     -361.96922     -123.26776      273           -21691.08       7447.2363    
 2556.9132      170.73502      149.55108      2386.1782      2349.7096      3.5188726      7.7190304      0             -164.15912      551.35965     -361.96981     -123.55597      270           -21866.451      7447.2363    
 2591.7858      174.19268      152.57972      2417.5932      2383.638       2.8702306      8.5301007      0             -165.93479      550.48297     -361.99335     -124.44211      270           -22134.781      7447.2363    
 2627.4067      179.58678      157.30455      2447.8199      2417.7724      3.4727152      9.0950384      0             -169.75027      549.22862     -361.99864     -126.95101      266           -22702.456      7447.2363    
 2663.4729      181.47457      158.95812      2481.9983      2452.2903      3.2865054      9.5737344      0             -169.68438      548.53465     -362.00252     -127.54319      264           -23031.016      7447.2363    
 2698.7999      182.81577      160.1329       2515.9842      2486.9545      2.8417273      8.2830551      0             -166.87008      546.81289     -362.03795     -128.77594      263           -22860.578      7447.2363    
 2734.5964      182.59009      159.93523      2552.0064      2522.1158      3.5818513      6.6324395      0             -163.57354      545.36144     -362.11167     -129.93104      269           -22716.303      7447.2363    
 2771.4991      181.45827      158.94383      2590.0408      2557.3603      3.5791288      6.2717778      0             -160.17385      545.19228     -362.18875     -129.30472      267           -22914.698      7447.2363    
 2807.4413      185.47287      162.46032      2621.9685      2592.8308      4.3378493      5.3847399      0             -161.57652      543.19799     -362.20642     -130.59652      266           -23180.889      7447.2363    
 2844.4897      191.10817      167.39642      2653.3815      2628.2976      3.6994501      5.2496913      0             -164.34531      542.68626     -362.20615     -129.53723      265           -23541.938      7447.2363    
 2881.9635      194.53483      170.39792      2687.4286      2664.2858      3.0873203      5.6402715      0             -165.7817       542.4223      -362.22536     -127.80077      264           -24188.354      7447.2363    
 2919.8334      196.7899       172.3732       2723.0435      2700.808       3.5449958      6.4293765      0             -167.34253      541.86665     -362.26301     -129.08597      259           -24565.588      7447.2363    
 2957.9132      196.8927       172.46324      2761.0205      2736.9702      3.0001237      9.0208128      0             -167.46663      541.81364     -362.3177      -129.6168       253           -24657.328      7447.2363    
 2996.8314      194.51759      170.38282      2802.3138      2773.887       3.2402431      11.084027      0             -166.39216      542.82417     -362.32944     -129.40812      254           -24902.668      7447.2363    
 3035.8238      195.13516      170.92377      2840.6887      2811.1837      2.9811407      10.528165      0             -164.80492      543.1103      -362.30969     -128.71272      252           -25289.253      7447.2363    
 3074.2594      196.90773      172.4764       2877.3517      2848.2893      2.7140641      9.5931888      0             -163.43057      542.4689      -362.28319     -127.60322      259           -25392.215      7447.2363    
 3113.5247      196.20136      171.85768      2917.3233      2886.0788      3.0065793      10.980312      0             -163.61734      543.14458     -362.26959     -126.19963      252           -25628.474      7447.2363    
 3153.2633      200.21394      175.3724       2953.0493      2923.8645      2.7741516      10.825022      0             -165.59258      543.4593      -362.28105     -126.39009      263           -26270.341      7447.2363    
 3192.8918      203.71934      178.44286      2989.1724      2961.8919      2.7381562      8.4365489      0             -166.07508      544.43487     -362.25393     -125.15045      260           -26643.476      7447.2363    
 3233.1278      204.52979      179.15275      3028.598       3000.0991      2.6733901      6.695652       0             -165.10875      546.46458     -362.22595     -121.61901      253           -26748.404      7447.2363    
 3272.915       206.02674      180.46397      3066.8883      3038.678       2.5212101      6.7468176      0             -164.79313      545.96502     -362.22966     -121.04165      253           -27180.218      7447.2363    
 3312.1225      208.63434      182.74803      3103.4882      3077.6191      2.9069374      7.2518591      0             -166.22321      544.1837      -362.25022     -123.71225      257           -27574.301      7447.2363    
 3352.7301      208.87429      182.95821      3143.8558      3116.8019      3.1835744      7.6432166      0             -166.34615      544.86286     -362.28962     -124.61638      259           -27617.688      7447.2363    
 3393.9505      210.0641       184.0004       3183.8864      3156.3684      2.966235       7.5753233      0             -166.23772      545.49796     -362.28377     -125.11259      263           -27775.801      7447.2363    
 3435.892       214.97634      188.30315      3220.9157      3195.9403      3.1811128      6.4862398      0             -167.54849      545.11508     -362.25858     -127.94324      262           -28285.458      7447.2363    
 3476.8677      213.40486      186.92665      3263.4629      3235.948       3.3684565      7.9231136      0             -165.79999      544.27628     -362.25298     -129.04748      259           -28338.062      7447.2363    
 3519.0035      212.45136      186.09146      3306.5521      3275.9047      3.3934826      9.2735138      0             -164.23256      544.45861     -362.24566     -130.79928      260           -28186.093      7447.2363    
 3561.0327      216.35337      189.50933      3344.6793      3316.7108      3.4064558      8.1353502      0             -165.12171      543.83667     -362.28829     -133.02162      268           -28678.722      7447.2363    
 3604.1862      218.6584       191.52836      3385.5278      3357.6246      2.945115       7.947408       0             -165.8002       545.12726     -362.31639     -131.77108      276           -29193.041      7447.2363    
 3647.8491      222.82025      195.17383      3425.0288      3397.9668      2.9672713      8.3309186      0             -168.67231      546.77143     -362.33528     -131.90819      284           -29446.517      7447.2363    
 3690.2289      226.50108      198.39796      3463.7278      3439.7433      3.3003601      8.7239304      0             -172.25201      546.5786      -362.36642     -133.87285      285           -30076.267      7447.2363    
 3733.5672      229.01079      200.59627      3504.5565      3480.97        3.026396       9.4519124      0             -173.56732      547.02849     -362.35299     -134.30312      286           -30568.002      7447.2363    
 3776.8639      228.23102      199.91326      3548.6329      3522.5252      3.0287618      10.186312      0             -172.63034      547.85587     -362.33288     -132.82291      284           -30698.13       7447.2363    
 3820.6252      228.57077      200.21085      3592.0544      3564.8493      3.1758494      9.1797059      0             -171.46171      548.61796     -362.30672     -130.44823      288           -30904.985      7447.2363    
 3865.6237      232.32187      203.49654      3633.3018      3606.7208      3.1598325      7.4771257      0             -171.2428       549.48808     -362.30124     -128.73487      290           -31462.006      7447.2363    
 3908.832       230.65282      202.03457      3678.1792      3649.8056      3.2777773      8.5871046      0             -170.09204      548.93511     -362.33436     -127.64121      287           -31877.385      7447.2363    
 3953.9529      231.17046      202.48798      3722.7824      3692.4651      3.2512938      10.148384      0             -169.68821      548.93025     -362.32438     -128.82015      291           -31908.234      7447.2363    
 3999.3938      233.03021      204.11699      3766.3635      3735.3922      3.2894961      10.681414      0             -169.59056      548.86295     -362.27193     -129.30688      289           -32325.99       7447.2363    
 4044.1013      234.38472      205.30344      3809.7166      3779.1925      3.0858883      10.585859      0             -170.06557      549.10553     -362.18766     -128.73958      291           -32848.306      7447.2363    
 4089.4307      237.89998      208.38254      3851.5307      3822.3109      2.9180085      10.586833      0             -171.3214       549.18866     -362.15233     -129.92835      286           -32887.052      7447.2363    
 4134.9655      242.1598       212.11383      3892.8057      3866.006       2.9840547      10.623809      0             -172.76042      548.13813     -362.18589     -132.63073      285           -33171.283      7447.2363    
 4181.1287      243.50918      213.29578      3937.6195      3910.5312      3.3107336      10.7773        0             -171.9778       547.23691     -362.25885     -133.6621       290           -33515.829      7447.2363    
 4227.5027      243.63583      213.40671      3983.8669      3955.0136      2.7019249      11.124208      0             -169.66747      547.00094     -362.30634     -133.39399      285           -33529.372      7447.2363    
 4273.8719      244.20522      213.90546      4029.6667      3999.3816      3.2109831      11.256792      0             -168.80853      546.90607     -362.28022     -134.30368      289           -33569.557      7447.2363    
 4320.9421      247.72656      216.98989      4073.2155      4044.5053      3.4358155      11.042971      0             -170.43134      546.90659     -362.24384     -135.93302      284           -34148.762      7447.2363    
 4367.1273      250.02182      219.00036      4117.1055      4089.9457      2.9406855      10.545488      0             -170.52372      546.41161     -362.2143      -134.36124      275           -34811.329      7447.2363    
 4414.5541      251.56718      220.35398      4162.9869      4134.8618      3.6540679      10.132158      0             -170.02444      546.58496     -362.22166     -133.64248      276           -34939.313      7447.2363    
 4461.3696      252.7628       221.40125      4208.6068      4180.8903      2.6963356      9.9957223      0             -168.29358      545.59094     -362.27288     -132.84235      283           -35269.915      7447.2363    
 4508.2518      254.97208      223.33642      4253.2797      4227.0088      2.6516649      8.8393458      0             -167.30671      544.39549     -362.30883     -132.9054       287           -35753.419      7447.2363    
 4556.7267      256.69531      224.84584      4300.0314      4273.2515      3.226469       8.503358       0             -167.96863      545.31235     -362.29368     -134.03898      282           -35772.836      7447.2363    
 4605.9017      258.20159      226.16523      4347.7001      4319.4006      2.7008355      9.4767699      0             -168.05589      546.40513     -362.22735     -132.69195      285           -36097.278      7447.2363    
 4654.5185      261.26211      228.84601      4393.2564      4366.2993      3.1900083      9.33622        0             -169.59372      546.18977     -362.16523     -133.01264      286           -36790.322      7447.2363    
 4704.6066      261.70407      229.23314      4442.9025      4413.7327      3.4683813      8.8772274      0             -169.42022      548.40664     -362.16221     -131.94272      286           -37101.87       7447.2363    
 4754.1338      261.83057      229.34395      4492.3032      4460.1867      3.0143096      9.4618536      0             -167.88307      549.75333     -362.22988     -129.43574      284           -37207.887      7447.2363    
 4803.336       263.9221       231.17597      4539.4139      4508.3102      3.1153424      9.9157926      0             -169.09633      549.47188     -362.30299     -130.10431      287           -37805.214      7447.2363    
 4852.9679      264.97891      232.10165      4587.989       4556.4001      3.2925961      11.620587      0             -169.88711      548.88045     -362.3176      -130.68259      283           -38447.755      7447.2363    
 4903.349       265.44446      232.50944      4637.9046      4603.6202      2.9628709      12.469378      0             -168.40648      549.56846     -362.30983     -127.31852      279           -38559.815      7447.2363    
 4953.5569      268.6522       235.31918      4684.9047      4652.577       3.4356963      10.486372      0             -169.09141      549.79823     -362.30118     -127.90642      274           -38949.715      7447.2363    
 5004.2179      270.74458      237.15195      4733.4733      4701.3456      3.8865609      9.8986573      0             -169.51281      550.18191     -362.32664     -128.83439      275           -39542.408      7447.2363    
 5054.9061      271.06559      237.43313      4783.8405      4749.9743      3.2398225      11.223479      0             -168.99582      550.75988     -362.36121     -127.53083      277           -39642.561      7447.2363    
 5106.0915      275.89867      241.66654      4830.1928      4799.2039      3.3326907      10.104393      0             -171.00203      550.89014     -362.33624     -129.3149       284           -39920.962      7447.2363    
 5158.9344      280.54408      245.73557      4878.3903      4848.4041      3.242022       8.0044171      0             -170.28099      551.34209     -362.32134     -128.31761      281           -40438.297      7447.2363    
 5210.1404      283.61289      248.42362      4926.5275      4898.0669      3.1626628      7.1010827      0             -169.30877      549.81845     -362.31288     -128.36109      290           -40739.359      7447.2363    
 5262.1237      287.75177      252.04897      4974.3719      4947.8651      3.500262       8.1216565      0             -171.56947      548.8057      -362.35135     -133.03497      283           -40860.349      7447.2363    
 5314.6968      290.79274      254.71263      5023.9041      4998.1025      3.4066874      10.180348      0             -173.33753      547.93579     -362.38372     -138.68951      284           -41208.388      7447.2363    
 5367.0638      290.76117      254.68498      5076.3026      5048.8218      2.9864976      12.020178      0             -172.79772      547.63414     -362.36228     -140.63967      286           -41660.828      7447.2363    
 5419.6517      292.88096      256.54176      5126.7708      5099.4605      3.3716557      11.394487      0             -171.59123      546.4757      -362.34031     -141.75632      286           -41583.489      7447.2363    
 5473.6074      294.23322      257.72623      5179.3742      5150.2344      2.9122107      9.5854894      0             -167.81083      546.74341     -362.29054     -137.66385      292           -41793.535      7447.2363    
 5526.1712      292.4253       256.14263      5233.7459      5201.6177      3.0728809      8.9773832      0             -164.70355      547.05298     -362.27156     -131.60743      292           -42486.798      7447.2363    
 5580.3155      294.87485      258.28826      5285.4406      5253.1955      3.7290556      8.5283742      0             -166.33521      548.58069     -362.25781     -129.82356      290           -42891.043      7447.2363    
 5634.4369      298.23158      261.2285       5336.2053      5304.4544      2.7702879      10.234772      0             -168.77541      549.74411     -362.22287     -129.41812      290           -43358.31       7447.2363    
 5688.6648      298.48311      261.44882      5390.1817      5357.0613      3.6238605      12.837626      0             -171.06318      549.9627      -362.2406      -129.67062      287           -44058.185      7447.2363    
 5743.3713      297.57982      260.6576       5445.7915      5409.1411      4.0511994      13.199225      0             -168.68529      550.36241     -362.27712     -126.04998      291           -44534.96       7447.2363    
 5797.5522      301.66523      264.23612      5495.8869      5461.344       3.0576677      10.305907      0             -166.72534      550.22295     -362.31821     -124.26048      298           -44648.166      7447.2363    
 5852.5127      303.58638      265.9189       5548.9263      5514.6643      3.874635       10.418732      0             -167.73443      550.07898     -362.37593     -123.58869      289           -45083.565      7447.2363    
 5907.6279      305.83212      267.886        5601.7957      5567.7955      3.7628774      13.799484      0             -170.10211      548.93759     -362.39755     -125.93982      288           -45920.123      7447.2363    
 5963.0392      311.38061      272.74606      5651.6586      5621.3446      3.2222908      14.004205      0             -172.83115      548.32454     -362.40588     -129.70651      290           -46188.246      7447.2363    
 6018.8965      315.73469      276.55991      5703.1618      5674.7432      3.8299161      10.762848      0             -173.11691      549.38224     -362.43949     -130.61303      296           -46188.519      7447.2363    
 6076.8995      319.68033      280.01599      5757.2191      5728.5508      3.1394021      7.1879709      0             -171.16151      552.00116     -362.4987      -129.43023      286           -46665.052      7447.2363    
 6132.9822      324.81414      284.51283      5808.1681      5782.9514      3.5392521      5.6544453      0             -172.09447      550.65315     -362.53571     -132.48597      289           -47005.628      7447.2363    
 6189.6286      327.39297      286.77169      5862.2356      5837.1083      2.7023296      6.8242953      0             -171.78865      549.90432     -362.51495     -136.62725      289           -46884.597      7447.2363    
 6246.8309      330.99067      289.923        5915.8403      5891.7778      2.6835475      7.613923       0             -171.53001      547.77718     -362.48214     -141.19195      288           -47001.319      7447.2363    
 6303.8608      336.875        295.07724      5966.9858      5946.999       3.7346743      7.093506       0             -173.70489      545.34625     -362.4827      -145.3088       297           -47566.805      7447.2363    
 6362.6429      338.01564      296.07635      6024.6273      6002.2185      2.8803325      7.9685852      0             -172.49716      546.56328     -362.50624     -144.82642      290           -47780.924      7447.2363    
 6421.0598      339.90045      297.7273       6081.1593      6057.184       2.650451       9.6510722      0             -171.98867      546.20778     -362.54529     -145.03123      286           -47828.853      7447.2363    
 6477.7772      340.58966      298.331        6137.1876      6113.2376      3.5040667      11.223654      0             -172.14001      543.87808     -362.51577     -146.584        277           -48420.676      7447.2363    
 6536.5369      340.02548      297.83682      6196.5114      6169.6209      3.0951353      11.722561      0             -169.75577      544.27469     -362.44606     -144.29339      279           -48862.96       7447.2363    
 6595.2342      341.03461      298.72074      6254.1996      6225.2171      2.7357083      10.793732      0             -166.95416      544.85547     -362.44824     -139.66832      283           -48919.868      7447.2363    
 6653.9763      342.0807       299.63704      6311.8956      6282.6247      3.3221942      8.8622135      0             -165.65916      545.22411     -362.47852     -136.41766      286           -49614.574      7447.2363    
 6713.7665      344.90979      302.11511      6368.8567      6339.3111      2.6686468      7.6884637      0             -164.88051      546.55544     -362.48642     -132.48505      283           -50329.269      7447.2363    
 6772.8554      346.48006      303.49055      6426.3754      6395.8591      2.650113       7.8382779      0             -164.97051      547.42523     -362.42684     -129.00171      277           -50675.257      7447.2363    
 6831.9884      347.72961      304.58506      6484.2588      6453.7162      3.1853078      8.2997879      0             -166.07844      547.49839     -362.36246     -127.55002      282           -51323.06       7447.2363    
 6891.6399      350.39316      306.91813      6541.2467      6511.2291      3.2433985      8.9683008      0             -166.70682      546.93106     -362.41833     -125.44235      280           -52157.613      7447.2363    
 6951.8892      353.70865      309.82225      6598.1805      6569.2732      2.6222552      9.0036744      0             -167.77666      547.54921     -362.49118     -125.11209      284           -52564.011      7447.2363    
 7013.3763      357.28712      312.95672      6656.0892      6627.1657      2.9757165      9.2736964      0             -169.8098       549.02856     -362.54465     -125.49865      290           -52764.94       7447.2363    
 7074.3578      357.86943      313.46678      6716.4884      6685.4972      3.3283655      11.041654      0             -169.93963      549.09467     -362.53393     -124.59191      292           -53460.033      7447.2363    
 7134.5365      361.56114      316.70045      6772.9754      6744.7742      3.1313608      10.732714      0             -171.20769      548.03592     -362.49117     -126.53779      296           -53997.442      7447.2363    
 7196.6124      368.81499      323.05427      6827.7974      6803.0256      3.486518       10.118824      0             -174.27538      547.9387      -362.4969      -131.12251      295           -53964.147      7447.2363    
 7258.2027      368.77554      323.01972      6889.4271      6862.2442      2.8994227      10.764803      0             -172.12878      548.16433     -362.51679     -130.57943      295           -54340.879      7447.2363    
 7319.8043      370.78059      324.77599      6949.0237      6922.1687      3.679348       8.9936175      0             -170.90741      547.60041     -362.51093     -133.92625      291           -54745.304      7447.2363    
 7382.5942      375.20052      328.64751      7007.3937      6981.4861      3.1085769      6.8731282      0             -169.53668      547.96821     -362.50565     -135.52963      292           -54594.03       7447.2363    
 7445.5884      374.6038       328.12483      7070.9846      7041.5971      3.0810519      8.2586307      0             -167.9273       548.48417     -362.50902     -135.48542      288           -54807.754      7447.2363    
 7508.2154      377.8286       330.94952      7130.3868      7102.4926      3.922425       9.4555426      0             -169.37367      546.40683     -362.51701     -140.06224      292           -55451.738      7447.2363    
 7571.8849      383.19386      335.64908      7188.691       7162.8501      3.0900879      10.180715      0             -170.63964      545.74905     -362.53932     -142.21423      286           -55764.742      7447.2363    
 7634.3656      384.81481      337.06892      7249.5507      7223.4291      3.2728119      10.917236      0             -171.24138      545.69517     -362.52218     -141.07636      287           -55949.939      7447.2363    
 7698.4127      384.41474      336.71849      7313.998       7284.9619      3.8869711      11.142083      0             -170.37563      546.85602     -362.47337     -138.91082      288           -56682.104      7447.2363    
 7763.0777      387.84204      339.72054      7375.2357      7346.1226      3.7738154      9.4077927      0             -169.83841      548.21505     -362.44518     -135.35626      288           -57405.977      7447.2363    
 7826.3413      391.70987      343.10847      7434.6314      7407.3538      3.7346414      6.7170248      0             -169.68073      548.95455     -362.44783     -130.65905      290           -57668.862      7447.2363    
 7889.6394      391.37613      342.81614      7498.2633      7469.4088      3.8866228      7.2833784      0             -168.80906      548.9748      -362.4813      -126.06759      296           -58379.368      7447.2363    
 7953.0155      392.14312      343.48797      7560.8724      7531.5263      3.7160738      9.1996962      0             -168.48781      547.39905     -362.48086     -124.73867      302           -59255.466      7447.2363    
 8017.6512      395.28141      346.23687      7622.3698      7594.019       4.1503956      9.7715452      0             -169.64472      546.53568     -362.46204     -127.317        293           -59399.249      7447.2363    
 8082.4376      395.67303      346.5799       7686.7646      7656.653       3.6625585      10.693388      0             -167.47245      545.6616      -362.43347     -127.37854      290           -59489.534      7447.2363    
 8148.4661      397.43003      348.1189       7751.0361      7719.4072      4.2665894      11.05464       0             -165.84051      544.53789     -362.38975     -129.31946      287           -59999.673      7447.2363    
 8213.3191      398.04593      348.65839      7815.2731      7783.0838      4.3675839      11.676971      0             -165.11118      543.63895     -362.38301     -130.30005      292           -60361.601      7447.2363    
 8279.4536      403.91309      353.79757      7875.5405      7846.2724      3.6331775      11.062923      0             -166.8656       543.85048     -362.41285     -132.2093       293           -60461.089      7447.2363    
 8346.2336      411.68674      360.60671      7934.5468      7909.7863      3.4109478      8.2043484      0             -168.64342      544.20918     -362.42056     -133.31099      291           -61189.768      7447.2363    
 8413.0848      411.88424      360.7797       8001.2005      7974.123       4.2017218      7.0917985      0             -167.44979      545.62395     -362.39018     -129.40101      295           -61955.882      7447.2363    
 8480.1199      415.04442      363.54778      8065.0755      8037.9997      3.9791853      8.1922485      0             -168.47829      545.74265     -362.35999     -128.64147      299           -62170.235      7447.2363    
 8547.7342      419.19843      367.18638      8128.5358      8102.3066      3.4248999      10.543368      0             -170.78337      545.39329     -362.34901     -130.66361      298           -62633.353      7447.2363    
 8614.9469      419.11066      367.10951      8195.8363      8167.757       4.2964619      12.071834      0             -170.73445      544.80819     -362.36273     -130.06353      299           -63452.512      7447.2363    
 8682.638       421.80269      369.46753      8260.8353      8232.5479      3.7699971      10.538809      0             -169.45764      545.78868     -362.35248     -127.75628      305           -63790.361      7447.2363    
 8751.7084      422.09172      369.7207       8329.6167      8297.4897      3.483326       9.0468805      0             -166.57994      548.48802     -362.3113      -123.80882      298           -63884.683      7447.2363    
 8819.3707      421.74194      369.41431      8397.6287      8363.6368      4.8374826      8.1501317      0             -165.13847      548.40071     -362.25787     -120.51655      298           -64664.081      7447.2363    
 8888.1376      427.82797      374.74522      8460.3097      8429.7349      4.0652768      6.9642939      0             -166.0052       547.76305     -362.2127      -121.3139       299           -65456.632      7447.2363    
 8957.9451      433.88336      380.04929      8524.0618      8495.165       3.9162671      7.308908       0             -168.19484      548.08787     -362.22145     -122.36539      303           -65588.535      7447.2363    
 9026.6127      436.19638      382.07532      8590.4163      8561.7115      3.7511963      8.8181708      0             -170.23482      548.57239     -362.20208     -121.53961      312           -66265.062      7447.2363    
 9095.9158      441.83489      387.01423      8654.0809      8628.8085      4.3917516      8.4311868      0             -173.48399      548.09831     -362.16489     -123.89965      314           -67281.036      7447.2363    
 9165.5521      446.06299      390.71773      8719.4892      8695.0265      4.130207       8.3674701      0             -174.11967      548.24011     -362.15545     -125.65204      311           -67379.869      7447.2363    
 9235.054       447.10696      391.63216      8787.9471      8762.5149      3.8639896      8.9453215      0             -173.49857      548.25278     -362.13139     -128.13717      306           -67346.568      7447.2363    
 9305.7259      449.23216      393.49368      8856.4938      8830.1517      4.0068237      9.586294       0             -173.15225      548.04811     -362.1469      -129.57337      306           -67989.58       7447.2363    
 9376.1761      451.86712      395.80171      8924.309       8897.7471      3.909616       10.118282      0             -173.45339      548.17532     -362.18798     -129.29007      301           -68547.266      7447.2363    
 9447.4216      456.85357      400.16947      8990.5681      8965.702       4.6748694      8.3019407      0             -174.54255      548.63849     -362.20668     -131.16127      300           -68591.16       7447.2363    
 9518.8589      461.54315      404.27719      9057.3157      9033.7333      3.3805998      7.5587463      0             -173.72376      548.60355     -362.23671     -131.16042      293           -69017.728      7447.2363    
 9589.957       464.79689      407.12722      9125.1602      9102.7512      3.9716763      8.4912391      0             -174.05943      546.25804     -362.25254     -135.33788      300           -69817.704      7447.2363    
 9661.0971      467.54565      409.53493      9193.5514      9171.4354      4.0748002      10.388525      0             -174.19219      544.13909     -362.29424     -139.82419      302           -69765.988      7447.2363    
 9733.3059      468.40855      410.29076      9264.8974      9240.2846      3.3288982      12.352348      0             -172.22172      543.51226     -362.35902     -139.88652      300           -69772.75       7447.2363    
 9805.1416      473.10548      414.40492      9332.0362      9310.13        4.1145598      11.057709      0             -173.01518      542.17183     -362.42273     -141.26391      293           -70742.636      7447.2363    
 9877.2497      481.35395      421.62996      9395.8958      9379.3742      3.7151852      8.0192426      0             -175.45809      542.7279      -362.48268     -141.31923      290           -71258.228      7447.2363    
 9950.4043      482.69044      422.80063      9467.7138      9448.984       3.215476       8.6568909      0             -174.763        544.1504      -362.52995     -137.74436      289           -71455.679      7447.2363    
 10023.889      485.29514      425.08214      9538.5938      9519.111       3.7041403      9.040613       0             -175.08264      544.38874     -362.56801     -136.55816      294           -72308.15       7447.2363    
 10095.178      485.85482      425.57238      9609.3235      9590.3483      4.1902789      8.1683958      0             -173.7087       542.92138     -362.59616     -132.44261      284           -73172.843      7447.2363    
 10169.566      487.19726      426.74826      9682.3689      9660.2938      3.8324002      8.7732633      0             -172.68643      544.76706     -362.61119     -127.59963      280           -73405.586      7447.2363    
 10243.209      490.89959      429.99122      9752.3097      9730.8039      3.6017546      9.4896317      0             -173.83694      544.88024     -362.62883     -125.65066      273           -74066.38       7447.2363    
 10317.497      491.57182      430.58005      9825.9255      9803.0012      3.4959447      10.616016      0             -173.20392      544.65305     -362.63671     -124.17589      275           -75091.116      7447.2363    
 10392.851      494.27682      432.94942      9898.574       9873.3589      3.6761395      11.444619      0             -172.07631      544.82211     -362.65142     -123.92923      282           -75208.265      7447.2363    
 10468.09       499.20699      437.26788      9968.883       9945.1042      4.1660383      11.577588      0             -173.50439      544.19602     -362.65647     -128.21853      284           -75046.056      7447.2363    
 10543.543      501.81318      439.55071      10041.73       10017.799      3.8309467      12.932317      0             -173.0722       542.88789     -362.64784     -131.93768      283           -75814.194      7447.2363    
 10619.867      503.90856      441.38611      10115.958      10089.579      3.7996227      13.442358      0             -171.03438      542.81582     -362.64451     -133.29888      280           -76074.678      7447.2363    
 10694.517      510.66732      447.30627      10183.85       10162.305      3.76595        11.298366      0             -171.53313      540.64947     -362.63604     -138.0749       285           -75894.29       7447.2363    
 10771.289      519.16822      454.75242      10252.12       10234.655      3.88906        9.1698627      0             -172.89621      539.9045      -362.60216     -141.32721      287           -76473.792      7447.2363    
 10846.058      523.90024      458.89732      10322.158      10308.417      4.5509064      8.3005259      0             -174.51083      537.95454     -362.55402     -143.52683      288           -77443.49       7447.2363    
 10921.109      527.13492      461.73065      10393.974      10381.572      4.001413       7.952501       0             -174.77306      537.74388     -362.5227      -143.86845      292           -77585.707      7447.2363    
 10999.49       531.35554      465.4276       10468.134      10454.385      3.5668784      8.4358843      0             -174.59287      538.85659     -362.51703     -142.03302      289           -77870.478      7447.2363    
 11076.382      532.49533      466.42597      10543.886      10529.131      3.9982754      10.343541      0             -175.29985      538.19006     -362.47656     -141.50552      284           -78998.573      7447.2363    
 11153.925      532.58969      466.50863      10621.335      10602.839      4.2576612      11.830128      0             -175.06096      539.8904      -362.42114     -140.05217      282           -79526.901      7447.2363    
 11231.92       537.11079      470.46877      10694.809      10676.492      4.0010169      11.086613      0             -176.12616      541.75207     -362.39588     -139.5394       282           -79472.711      7447.2363    
 11307.581      541.95262      474.70985      10765.628      10751.835      4.1274259      11.114512      0             -179.61341      540.54651     -362.38178     -140.86366      284           -80652.009      7447.2363    
 11386.844      546.0976       478.34055      10840.747      10827.044      3.9971456      12.85427       0             -182.4799       541.70679     -362.3754      -140.72184      281           -81628.833      7447.2363    
 11466.506      547.89774      479.91733      10918.608      10901.49       4.0842401      13.524525      0             -182.15127      544.01835     -362.35746     -139.21899      285           -81639.556      7447.2363    
 11543.537      551.18541      482.79708      10992.351      10977.267      4.4146111      11.541073      0             -181.30383      542.74156     -362.30892     -140.85635      287           -82032.199      7447.2363    
 11623.339      550.14068      481.88198      11073.198      11053.569      3.7901998      11.183014      0             -176.78034      543.73968     -362.30341     -140.42602      284           -82612.402      7447.2363    
 11703.013      548.25898      480.23375      11154.754      11128.696      4.1316244      11.895164      0             -172.65439      545.01428     -362.32776     -139.7031       282           -82553.107      7447.2363    
 11783.144      551.11019      482.73119      11232.034      11205.591      3.9451374      9.8871474      0             -171.46537      546.40964     -362.33343     -139.56679      281           -82602.293      7447.2363    
 11863.306      553.29397      484.64402      11310.012      11282.072      4.1291239      9.1379276      0             -169.41523      546.41019     -362.32189     -138.13588      278           -83412.309      7447.2363    
 11942.807      555.43551      486.51986      11387.371      11358.642      4.6476196      10.469311      0             -169.67879      545.57768     -362.28669     -138.88741      284           -84002.567      7447.2363    
 12022.968      562.59721      492.79296      11460.371      11436.044      3.8847011      11.46738       0             -173.34398      544.61122     -362.29287     -142.12627      282           -84086.761      7447.2363    
 12103.95       570.09559      499.36098      11533.854      11512.406      4.2400005      13.015308      0             -176.69073      543.22181     -362.33808     -143.63358      287           -85070.023      7447.2363    
 12185.381      571.90818      500.94867      11613.472      11590.706      4.3294038      12.617014      0             -175.88837      544.10709     -362.399       -139.4826       294           -86097.113      7447.2363    
 12265.499      578.27         506.52115      11687.229      11668.127      4.6735131      9.5479338      0             -175.52404      542.83374     -362.42881     -138.72627      287           -86292.22       7447.2363    
 12347.73       585.31919      512.69571      11762.411      11745.914      3.725012       8.6856333      0             -176.1321       542.58937     -362.37118     -138.5475       278           -86665.524      7447.2363    
 12428.9        588.05338      515.09066      11840.846      11824.982      3.9413602      9.5708304      0             -177.57293      542.22502     -362.2999      -136.7306       276           -87821.148      7447.2363    
 12511.165      593.21764      519.61416      11917.947      11903.457      4.812771       8.9018609      0             -178.93675      542.01628     -362.30395     -138.27781      281           -88394.15       7447.2363    
 12593.826      598.56034      524.29397      11995.265      11982.265      3.7795064      7.2619542      0             -177.77876      542.12018     -362.38253     -139.86306      280           -88218.502      7447.2363    
[...]
 147.11647      101.52933      88.932077      45.587138      10.175678      20.195567      10.360299      0             -177.59501      544.85352     -362.40292     -137.38168      308           -651.83071      7447.2363    
 146.38613      100.5545       88.078197      45.831637      9.5598676      14.560603      11.003774      0             -173.22003      546.25521     -362.32778     -132.51066      304           -352.27844      7447.2363    
 144.20554      100.2965       87.852208      43.909042      8.7677583      15.417452      10.593282      0             -173.62627      545.02773     -362.27091     -135.04808      305           -642.0914       7447.2363    
 142.35604      100.55941      88.082503      41.796629      7.6408289      18.233708      9.0177565      0             -174.45766      543.65972     -362.29773     -138.0039       305           -132.6611       7447.2363    
 141.85053      93.68285       82.059151      48.167676      6.305501       17.976626      11.290461      0             -170.80021      545.68608     -362.29078     -134.13913      316            210.78073      7447.2363    
 141.31321      93.414619      81.824201      47.898596      7.3361556      18.461585      11.726826      0             -173.14317      545.77125     -362.25405     -136.30678      311           -552.39539      7447.2363    
 140.09108      99.925732      87.527448      40.165349      6.6395423      15.49362       10.752538      0             -175.41836      544.88835     -362.19034     -135.90667      306           -220.9698       7447.2363    
 140.64006      99.632104      87.270251      41.007952      4.8136129      14.992351      11.776929      0             -175.86469      547.40433     -362.11458     -135.73632      306           -97.569552      7447.2363    
 140.18994      99.884395      87.491239      40.305545      5.8960674      13.559868      12.438111      0             -176.03169      546.55279     -362.1096      -138.3211       310           -241.45178      7447.2363    
 139.62143      93.426142      81.834294      46.195284      4.1403348      19.362351      13.781098      0             -174.69488      545.75402     -362.14764     -137.12172      309            227.31016      7447.2363    
 138.91287      92.622875      81.130693      46.28999       4.1085547      17.245661      14.23725       0             -174.16791      547.05532     -362.18888     -136.03563      307            180.11343      7447.2363    
 139.73164      97.120091      85.069916      42.611548      3.8534931      19.806415      12.731172      0             -177.82413      546.28376     -362.23916     -139.23908      306            5.9250424      7447.2363    
 139.76497      100.99946      88.467952      38.765507      3.850213       14.977511      13.120231      0             -178.47564      547.52115     -362.22796     -137.38929      298           -425.15942      7447.2363    
 138.61107      101.77975      89.151431      36.831319      4.2915349      15.518907      11.957395      0             -180.6267       547.95401     -362.26383     -137.51005      299           -680.13183      7447.2363    
 138.85902      107.17798      93.879876      31.681035      3.2378776      17.205534      9.2670467      0             -183.75323      548.00762     -362.28382     -136.42782      308           -502.02217      7447.2363    
 138.57994      104.05685      91.145995      34.523091      5.0813598      13.14781       9.9642238      0             -181.66541      550.28206     -362.28695     -130.8261       300           -951.88513      7447.2363    
 138.87232      98.559592      86.330811      40.312727      4.5151898      20.964644      8.8943179      0             -181.69675      549.94101     -362.30569     -132.77667      307           -527.27575      7447.2363    
 139.6109       102.1492       89.47504       37.461697      4.5360735      15.800394      8.7711947      0             -180.76387      551.40809     -362.29019     -132.25536      304           -114.2481       7447.2363    
 140.06123      94.766833      83.008639      45.294392      5.0163442      16.494734      9.8791747      0             -175.89765      552.11795     -362.31617     -128.43982      307           -281.55575      7447.2363    
 139.55918      97.093099      85.046273      42.466082      5.0618418      16.797018      9.0652381      0             -176.31243      550.18102     -362.32661     -130.33501      303           -522.90185      7447.2363    
 140.06316      96.293435      84.345828      43.769726      6.0191097      13.986954      10.529274      0             -175.90227      551.45624     -362.31958     -132.25219      309           -377.63344      7447.2363    
 139.86946      95.446999      83.604413      44.422465      4.8221009      17.244687      12.470534      0             -178.6135       550.85536     -362.35671     -133.50203      318           -316.14667      7447.2363    
 141.58943      98.105444      85.933011      43.483984      6.1091388      17.850339      10.90593       0             -180.28043      551.27568     -362.37667     -134.1911       319           -514.89457      7447.2363    
 141.48531      100.75685      88.25544       40.728469      6.6967314      16.549606      9.7187544      0             -180.86393      550.95652     -362.32921     -133.2535       312           -639.49941      7447.2363    
 141.67666      98.814437      86.554036      42.862227      6.3720525      17.689409      11.632266      0             -181.04603      550.51789     -362.30336     -133.91051      312            204.72142      7447.2363    
 142.32723      96.947732      84.918943      45.3795        7.277547       17.659688      13.408871      0             -180.17777      549.51948     -362.30832     -134.67373      309           -232.60266      7447.2363    
 143.93309      104.87584      91.863374      39.057246      7.5367193      13.543148      13.190376      0             -182.0102       549.12548     -362.32827     -138.67545      314           -362.64175      7447.2363    
 144.61485      95.959068      84.052947      48.655782      8.4049514      15.974337      12.154481      0             -177.3227       551.82739     -362.38268     -134.70891      317            270.04525      7447.2363    
 144.90337      94.945196      83.164871      49.958173      7.8753648      16.422152      10.795053      0             -174.47597      551.79189     -362.45031     -133.9588       313            413.69449      7447.2363    
 145.38559      95.079695      83.282683      50.305896      9.3409468      18.983719      11.055628      0             -176.61337      549.97073     -362.43175     -137.57724      318            169.3144       7447.2363    
 145.40804      95.95216       84.046897      49.455881      9.2243638      17.926892      12.612392      0             -176.68892      548.72402     -362.34286     -137.27221      312            232.12879      7447.2363    
 146.25066      103.44513      90.61018       42.805524      8.7503246      13.125148      12.382772      0             -178.57556      549.45423     -362.33138     -138.74247      308            319.0389       7447.2363    
 145.5445       104.06845      91.156159      41.476051      10.632358      18.110036      10.418449      0             -181.68293      546.36987     -362.37174     -140.24969      309           -147.61042      7447.2363    
 145.76066      107.96672      94.570752      37.793938      10.946399      15.008659      11.327645      0             -183.03799      545.96511     -362.41589     -142.13713      312           -490.90001      7447.2363    
 146.73871      106.18552      93.010549      40.553198      10.590799      15.549501      12.653371      0             -182.74926      546.96594     -362.45716     -141.77817      309            511.98069      7447.2363    
 146.63977      108.67537      95.191475      37.964396      11.485973      17.074185      10.878243      0             -184.13448      545.08678     -362.4263      -142.67161      317            124.07199      7447.2363    
 147.70639      107.19355      93.893513      40.512836      12.072264      17.347259      8.4223788      0             -181.21846      546.32054     -362.43115     -137.62804      312           -214.78091      7447.2363    
 147.49564      106.81045      93.557941      40.685189      12.108148      17.212435      8.7213766      0             -180.83939      545.94068     -362.45806     -134.23063      328            58.661247      7447.2363    
 147.8761       106.99411      93.718816      40.881992      12.034149      17.70393       10.984528      0             -183.21759      545.86486     -362.48788     -137.3954       319           -123.8703       7447.2363    
 148.26732      107.88582      94.499884      40.381506      12.985715      14.929315      14.173026      0             -184.40101      545.24114     -362.54668     -140.49141      326           -533.32913      7447.2363    
 149.26686      104.40089      91.44735       44.865971      13.378916      14.483469      16.329919      0             -183.18629      546.39968     -362.53972     -142.48094      318           -120.27512      7447.2363    
 149.56627      98.322145      86.122826      51.244122      12.41263       19.142249      14.656043      0             -179.63882      547.2336      -362.56157     -139.88401      315            570.29945      7447.2363    
 149.28506      102.47091      89.75683       46.814151      13.195589      17.238089      11.771467      0             -178.29603      545.49095     -362.58592     -138.64204      320            553.37468      7447.2363    
 149.64105      96.772314      84.76529       52.868736      14.10475       18.206567      11.15558       0             -174.78134      546.75125     -362.56807     -134.6304       315            130.95158      7447.2363    
 149.24591      103.73715      90.865964      45.508763      13.266441      18.048186      7.7846838      0             -177.58114      546.54592     -362.55532     -136.01498      316            653.0928       7447.2363    
 148.71201      104.59641      91.618607      44.115601      13.954501      15.174165      7.0045759      0             -177.89873      548.33513     -362.45404     -138.21673      309            362.97631      7447.2363    
 148.89362      98.228595      86.040882      50.665021      14.696722      16.67723       9.2316244      0             -176.93723      549.35104     -362.35437     -136.46704      306           -263.48967      7447.2363    
 149.37567      102.27665      89.586672      47.09902       14.108722      18.801824      8.4536363      0             -179.27276      547.36695     -362.35935     -140.0971       313            289.31253      7447.2363    
 150.04284      96.756982      84.75186       53.285859      13.474064      17.029733      10.105459      0             -174.97475      550.03663     -362.38528     -134.38384      307            530.94406      7447.2363    
 150.35224      95.374446      83.540862      54.977792      14.199707      17.546104      10.255872      0             -174.60596      549.92053     -362.33846     -131.92939      304            170.06562      7447.2363    
 149.83387      97.849442      85.708773      51.984433      14.3681        20.612705      9.136346       0             -178.62561      548.74661     -362.25372     -135.68666      302            238.47541      7447.2363    
 150.85983      98.234097      86.045702      52.62573       12.822526      16.761624      10.446598      0             -177.642        552.41751     -362.18053     -129.84185      299            280.77526      7447.2363    
 150.45174      98.500997      86.279486      51.950743      13.616296      17.909246      8.6703191      0             -177.86463      551.7841      -362.16459     -129.26866      297           -3.1866847      7447.2363    
 149.6821       105.20654      92.153041      44.475556      13.96202       14.851678      7.7451444      0             -179.69329      549.82003     -362.21002     -130.03361      308           -505.85877      7447.2363    
 150.01698      97.508376      85.410025      52.508608      13.091373      15.590691      11.248692      0             -176.48339      551.2701      -362.20886     -128.29379      307           -106.91446      7447.2363    
 150.29868      92.648369      81.153023      57.650306      12.975398      18.175357      10.320433      0             -173.48754      551.81338     -362.14671     -129.50142      304            382.85724      7447.2363    
 149.29221      92.730534      81.224993      56.561676      13.13634       17.352614      7.796551       0             -171.75025      552.14042     -362.114       -126.57542      308           -0.3433069      7447.2363    
 149.03213      86.591198      75.847396      62.440932      12.751233      20.257646      9.2928204      0             -171.09379      553.38462     -362.15159     -123.73947      302            133.65232      7447.2363    
 149.24168      96.735414      84.732968      52.506263      11.252404      13.782146      10.498192      0             -173.60015      552.78341     -362.20975     -126.03549      306            149.06955      7447.2363    
 148.78485      95.190603      83.379829      53.594252      11.587869      16.301774      9.8417649      0             -175.02376      553.08624     -362.19964     -123.99792      305           -186.10675      7447.2363    
 147.54485      92.601808      81.112239      54.943044      11.521352      18.620078      8.1061347      0             -174.39312      553.25772     -362.16911     -120.14055      304           -351.43884      7447.2363    
 147.51119      95.702648      83.828342      51.808538      10.470886      17.355483      7.5758984      0             -175.02033      553.54975     -362.12315     -121.61569      307            13.513121      7447.2363    
 147.3507       96.140532      84.211896      51.210172      10.204016      16.069738      10.828193      0             -177.38991      553.57195     -362.07381     -125.19274      307            49.057962      7447.2363    
 146.36206      95.197394      83.385778      51.164664      10.084463      17.680366      12.293428      0             -178.37881      551.64632     -362.16111     -125.10894      306           -265.5432       7447.2363    
 146.98319      95.837226      83.946223      51.145965      10.242206      18.257092      11.570424      0             -179.04134      552.39548     -362.2779      -127.98583      307           -454.26285      7447.2363    
 146.0859       96.320251      84.369316      49.76565       8.6603588      15.454694      12.465771      0             -177.23791      552.70515     -362.28242     -126.00206      306            8.7415545      7447.2363    
 145.14199      97.006655      84.970555      48.135332      9.0381923      16.403613      11.197404      0             -178.13997      551.92478     -362.28869     -129.58239      309           -330.84765      7447.2363    
 143.77646      102.53057      89.809087      41.245891      8.3790537      15.369591      10.536545      0             -180.57319      549.8077      -362.27381     -135.83226      308           -445.21169      7447.2363    
 143.05419      93.179465      81.618223      49.874724      7.1105226      18.477312      10.925708      0             -175.43498      551.08954     -362.29338     -133.95256      312            562.72958      7447.2363    
 142.57358      96.245309      84.303673      46.328269      7.0987181      18.028829      8.0085357      0             -174.08717      549.70171     -362.42236     -136.70285      317            875.01689      7447.2363    
 142.18905      94.639694      82.897274      47.549355      6.9695193      18.630353      9.1012029      0             -173.36543      548.66999     -362.45627     -137.44849      322            299.32099      7447.2363    
 140.27229      93.044642      81.500129      47.227645      6.5765615      16.455639      12.001678      0             -174.66937      549.2902      -362.42706     -137.69216      317            596.78518      7447.2363    
 140.0694       100.94718      88.422163      39.122219      5.5963078      14.910414      10.073782      0             -177.62209      548.5042      -362.34039     -141.54484      309            691.47261      7447.2363    
 138.33203      97.018352      84.980801      41.313673      6.5118193      16.708642      9.7086123      0             -177.25919      547.93452     -362.29073     -138.71202      309            175.44904      7447.2363    
 138.89726      95.535634      83.682051      43.361628      5.6252856      16.421649      10.559081      0             -176.63121      549.72488     -362.33806     -136.33291      313            5.5111403      7447.2363    
 139.08702      96.161915      84.230626      42.925109      4.8538314      18.066489      10.782907      0             -177.63563      549.2294      -362.37189     -138.96555      323            604.19963      7447.2363    
 138.42046      96.038484      84.122509      42.381973      5.2846506      15.536025      11.668436      0             -178.30691      550.56537     -362.36559     -136.57         323            300.09417      7447.2363    
 138.54633      94.932367      83.153634      43.613968      3.9994166      18.136793      10.367788      0             -177.74012      551.16758     -362.31749     -136.07168      325           -247.74049      7447.2363    
 138.32652      96.346501      84.392309      41.980018      5.038845       15.87724       9.2626285      0             -177.38539      551.48601     -362.29931     -135.34488      310           -38.621992      7447.2363    
 138.07241      97.79704       85.662872      40.275371      4.239846       14.507135      9.9040776      0             -177.05225      551.03124     -362.35467     -132.36981      314            241.35755      7447.2363    
 138.23583      99.308845      86.9871        38.92698       4.1387384      17.166232      9.6920329      0             -179.58608      549.90542     -362.38936     -136.00096      314           -678.64114      7447.2363    
 138.62396      101.65546      89.042563      36.968495      4.4707448      13.641953      10.07156       0             -179.47755      550.63378     -362.37199     -133.91205      318           -437.88812      7447.2363    
 138.95987      97.750685      85.622269      41.20918       4.132562       16.812017      9.9224777      0             -179.22503      551.89718     -362.33003     -133.34432      326            140.76365      7447.2363    
Loop time of 19.344 on 6 procs for 10000 steps with 384 atoms

Performance: 44.665 ns/day, 0.537 hours/ns, 516.957 timesteps/s, 198.512 katom-step/s
97.7% CPU use with 6 MPI tasks x no OpenMP threads

MPI task timing breakdown:
Section |  min time  |  avg time  |  max time  |%varavg| %total
---------------------------------------------------------------
Pair    | 2.5617     | 3.2282     | 3.943      |  29.5 | 16.69
Bond    | 0.07603    | 0.097239   | 0.11269    |   4.2 |  0.50
Kspace  | 11.717     | 12.468     | 13.041     |  13.9 | 64.45
Neigh   | 0.86722    | 0.8873     | 0.90372    |   1.2 |  4.59
Comm    | 1.945      | 2.0745     | 2.2783     |   8.0 | 10.72
Output  | 0.26642    | 0.27786    | 0.32574    |   4.1 |  1.44
Modify  | 0.014158   | 0.017749   | 0.027554   |   3.4 |  0.09
Other   |            | 0.2932     |            |       |  1.52

Nlocal:             64 ave          87 max          42 min
Histogram: 2 0 0 0 2 0 0 0 0 2
Nghost:         2762.5 ave        2906 max        2503 min
Histogram: 2 0 0 0 0 0 0 0 2 2
Neighs:          17003 ave       24145 max       10492 min
Histogram: 1 1 0 2 0 0 0 0 0 2

Total # of neighbors = 102018
Ave neighs/atom = 265.67188
Ave special neighs/atom = 4
Neighbor list builds = 221
Dangerous builds = 0
Total wall time: 0:00:19
