LAMMPS (22 Dec 2022)
WARNING: Using I/O redirection is unreliable with parallel runs. Better to use the -in switch to read input files. (../lammps.cpp:531)
# PREREQUISITES:
#
#     You must use moltemplate.sh to create 3 files:
#        system.data  system.in.init  system.in.settings
#     (Follow the instructions in README_setup.sh,
#      or run the file as a script using ./README_setup.sh)

# ------------------------------- Initialization Section --------------------

units real
atom_style full
pair_style lj/class2/coul/cut 10.0
bond_style class2
angle_style class2
dihedral_style class2
improper_style class2


# ------------------------------- Atom Definition Section -------------------

read_data       "pre_mol.data" extra/bond/per/atom 1 extra/angle/per/atom 12 extra/dihedral/per/atom 12 extra/improper/per/atom 12 extra/special/per/atom 12
Reading data file ...
  orthogonal box = (0 0 0) to (93.650681 93.650681 93.650681)
  1 by 2 by 3 MPI processor grid
  reading atoms ...
  74 atoms
  scanning bonds ...
  5 = max bonds/atom
  scanning angles ...
  18 = max angles/atom
  scanning dihedrals ...
  30 = max dihedrals/atom
  scanning impropers ...
  16 = max impropers/atom
  reading bonds ...
  85 bonds
  reading angles ...
  186 angles
  reading dihedrals ...
  345 dihedrals
  reading impropers ...
  120 impropers
Finding 1-2 1-3 1-4 neighbors ...
  special bond factors lj:    0        0        0       
  special bond factors coul:  0        0        0       
     4 = max # of 1-2 neighbors
     9 = max # of 1-3 neighbors
    25 = max # of 1-4 neighbors
    34 = max # of special neighbors
  special bonds CPU = 0.001 seconds
  read_data CPU = 0.007 seconds

include calc.pram

# Masses

mass		1    12.01115  # c
mass		2    12.01115  # c1
mass		3    12.01115  # c3h
mass		4     1.00797  # h
mass		5     1.00797  # hc
mass		6    15.99940  # o3e
mass		7    15.99940  # oc
mass		8    15.99940  # oh

# Potentials

pair_coeff	 1  1    0.05400    4.01000  # c,c
pair_coeff	 2  2    0.05400    4.01000  # c1,c1
pair_coeff	 3  3    0.05400    4.01000  # c3h,c3h
pair_coeff	 4  4    0.02000    2.99500  # h,h
pair_coeff	 5  5    0.02000    2.99500  # hc,hc
pair_coeff	 6  6    0.24000    3.53500  # o3e,o3e
pair_coeff	 7  7    0.24000    3.53500  # oc,oc
pair_coeff	 8  8    0.24000    3.53500  # oh,oh

# Bond Coeffs

bond_coeff	 1    1.53000  299.67000 -501.77000  679.81000  # c,c
bond_coeff	 2    1.53000  299.67000 -501.77000  679.81000  # c,c1
bond_coeff	 3    1.53000  299.67000 -501.77000  679.81000  # c,c3h
bond_coeff	 4    1.10100  345.00000 -691.89000  844.60000  # c,hc
bond_coeff	 5    1.53000  299.67000 -501.77000  679.81000  # c1,c1
bond_coeff	 6    1.53000  299.67000 -501.77000  679.81000  # c1,c3h
bond_coeff	 7    1.10100  345.00000 -691.89000  844.60000  # c1,hc
bond_coeff	 8    1.42000  400.39540 -835.19510 1313.01420  # c1,o3e
bond_coeff	 9    1.42000  400.39540 -835.19510 1313.01420  # c1,oc
bond_coeff	10    1.42000  400.39540 -835.19510 1313.01420  # c1,oh
bond_coeff	11    1.53000  299.67000 -501.77000  679.81000  # c3h,c3h
bond_coeff	12    1.10100  345.00000 -691.89000  844.60000  # c3h,hc
bond_coeff	13    1.42000  400.39540 -835.19510 1313.01420  # c3h,o3e
bond_coeff	14    0.96000  493.84800    0.00000    0.00000  # h,oh

# Angle Coeffs

angle_coeff	 1  112.67000   39.51600   -7.44300   -9.55830  # c,c,c1
angle_coeff	 2  110.77000   41.45300  -10.60400    5.12900  # c,c,hc
angle_coeff	 3  112.67000   39.51600   -7.44300   -9.55830  # c,c1,c
angle_coeff	 4  112.67000   39.51600   -7.44300   -9.55830  # c,c1,c1
angle_coeff	 5  110.77000   41.45300  -10.60400    5.12900  # c,c1,hc
angle_coeff	 6  111.27000   54.53810   -8.36420  -13.08380  # c,c1,o3e
angle_coeff	 7  111.27000   54.53810   -8.36420  -13.08380  # c,c1,oc
angle_coeff	 8  112.67000   39.51600   -7.44300   -9.55830  # c,c3h,c3h
angle_coeff	 9  110.77000   41.45300  -10.60400    5.12900  # c,c3h,hc
angle_coeff	10  111.27000   54.53810   -8.36420  -13.08380  # c,c3h,o3e
angle_coeff	11  112.67000   39.51600   -7.44300   -9.55830  # c1,c,c1
angle_coeff	12  112.67000   39.51600   -7.44300   -9.55830  # c1,c,c3h
angle_coeff	13  110.77000   41.45300  -10.60400    5.12900  # c1,c,hc
angle_coeff	14  112.67000   39.51600   -7.44300   -9.55830  # c1,c1,c1
angle_coeff	15  112.67000   39.51600   -7.44300   -9.55830  # c1,c1,c3h
angle_coeff	16  110.77000   41.45300  -10.60400    5.12900  # c1,c1,hc
angle_coeff	17  111.27000   54.53810   -8.36420  -13.08380  # c1,c1,o3e
angle_coeff	18  111.27000   54.53810   -8.36420  -13.08380  # c1,c1,oc
angle_coeff	19  111.27000   54.53810   -8.36420  -13.08380  # c1,c1,oh
angle_coeff	20  112.67000   39.51600   -7.44300   -9.55830  # c1,c3h,c3h
angle_coeff	21  110.77000   41.45300  -10.60400    5.12900  # c1,c3h,hc
angle_coeff	22  111.27000   54.53810   -8.36420  -13.08380  # c1,c3h,o3e
angle_coeff	23  104.50000   35.74540  -10.00670   -6.27290  # c1,o3e,c1
angle_coeff	24  104.50000   35.74540  -10.00670   -6.27290  # c1,oc,c1
angle_coeff	25  109.00000   58.50000    0.00000    0.00000  # c1,oh,h
angle_coeff	26  110.77000   41.45300  -10.60400    5.12900  # c3h,c,hc
angle_coeff	27  110.77000   41.45300  -10.60400    5.12900  # c3h,c1,hc
angle_coeff	28  110.77000   41.45300  -10.60400    5.12900  # c3h,c3h,hc
angle_coeff	29  111.27000   54.53810   -8.36420  -13.08380  # c3h,c3h,o3e
angle_coeff	30  104.50000   35.74540  -10.00670   -6.27290  # c3h,o3e,c3h
angle_coeff	31  107.66000   39.64100  -12.92100   -2.43180  # hc,c,hc
angle_coeff	32  108.72800   58.54460  -10.80880  -12.40060  # hc,c1,o3e
angle_coeff	33  108.72800   58.54460  -10.80880  -12.40060  # hc,c1,oc
angle_coeff	34  108.72800   58.54460  -10.80880  -12.40060  # hc,c1,oh
angle_coeff	35  108.72800   58.54460  -10.80880  -12.40060  # hc,c3h,o3e

# BondBond Coeffs

angle_coeff	 1 bb    0.00000    1.53000    1.53000  # c,c,c1
angle_coeff	 2 bb    3.38720    1.53000    1.10100  # c,c,hc
angle_coeff	 3 bb    0.00000    1.53000    1.53000  # c,c1,c
angle_coeff	 4 bb    0.00000    1.53000    1.53000  # c,c1,c1
angle_coeff	 5 bb    3.38720    1.53000    1.10100  # c,c1,hc
angle_coeff	 6 bb   11.43180    1.53000    1.42000  # c,c1,o3e
angle_coeff	 7 bb   11.43180    1.53000    1.42000  # c,c1,oc
angle_coeff	 8 bb    0.00000    1.53000    1.53000  # c,c3h,c3h
angle_coeff	 9 bb    3.38720    1.53000    1.10100  # c,c3h,hc
angle_coeff	10 bb   11.43180    1.53000    1.42000  # c,c3h,o3e
angle_coeff	11 bb    0.00000    1.53000    1.53000  # c1,c,c1
angle_coeff	12 bb    0.00000    1.53000    1.53000  # c1,c,c3h
angle_coeff	13 bb    3.38720    1.53000    1.10100  # c1,c,hc
angle_coeff	14 bb    0.00000    1.53000    1.53000  # c1,c1,c1
angle_coeff	15 bb    0.00000    1.53000    1.53000  # c1,c1,c3h
angle_coeff	16 bb    3.38720    1.53000    1.10100  # c1,c1,hc
angle_coeff	17 bb   11.43180    1.53000    1.42000  # c1,c1,o3e
angle_coeff	18 bb   11.43180    1.53000    1.42000  # c1,c1,oc
angle_coeff	19 bb   11.43180    1.53000    1.42000  # c1,c1,oh
angle_coeff	20 bb    0.00000    1.53000    1.53000  # c1,c3h,c3h
angle_coeff	21 bb    3.38720    1.53000    1.10100  # c1,c3h,hc
angle_coeff	22 bb   11.43180    1.53000    1.42000  # c1,c3h,o3e
angle_coeff	23 bb   -7.11310    1.42000    1.42000  # c1,o3e,c1
angle_coeff	24 bb   -7.11310    1.42000    1.42000  # c1,oc,c1
angle_coeff	25 bb    0.00000    1.42000    0.96000  # c1,oh,h
angle_coeff	26 bb    3.38720    1.53000    1.10100  # c3h,c,hc
angle_coeff	27 bb    3.38720    1.53000    1.10100  # c3h,c1,hc
angle_coeff	28 bb    3.38720    1.53000    1.10100  # c3h,c3h,hc
angle_coeff	29 bb   11.43180    1.53000    1.42000  # c3h,c3h,o3e
angle_coeff	30 bb   -7.11310    1.42000    1.42000  # c3h,o3e,c3h
angle_coeff	31 bb    5.33160    1.10100    1.10100  # hc,c,hc
angle_coeff	32 bb   23.19790    1.10100    1.42000  # hc,c1,o3e
angle_coeff	33 bb   23.19790    1.10100    1.42000  # hc,c1,oc
angle_coeff	34 bb   23.19790    1.10100    1.42000  # hc,c1,oh
angle_coeff	35 bb   23.19790    1.10100    1.42000  # hc,c3h,o3e

# BondAngle Coeffs

angle_coeff	 1 ba    8.01600    8.01600    1.53000    1.53000  # c,c,c1
angle_coeff	 2 ba   11.42100   20.75400    1.53000    1.10100  # c,c,hc
angle_coeff	 3 ba    8.01600    8.01600    1.53000    1.53000  # c,c1,c
angle_coeff	 4 ba    8.01600    8.01600    1.53000    1.53000  # c,c1,c1
angle_coeff	 5 ba   11.42100   20.75400    1.53000    1.10100  # c,c1,hc
angle_coeff	 6 ba    2.68680   20.40330    1.53000    1.42000  # c,c1,o3e
angle_coeff	 7 ba   20.40330    2.68680    1.53000    1.42000  # c,c1,oc
angle_coeff	 8 ba    8.01600    8.01600    1.53000    1.53000  # c,c3h,c3h
angle_coeff	 9 ba   11.42100   20.75400    1.53000    1.10100  # c,c3h,hc
angle_coeff	10 ba    2.68680   20.40330    1.53000    1.42000  # c,c3h,o3e
angle_coeff	11 ba    8.01600    8.01600    1.53000    1.53000  # c1,c,c1
angle_coeff	12 ba    8.01600    8.01600    1.53000    1.53000  # c1,c,c3h
angle_coeff	13 ba   20.75400   11.42100    1.53000    1.10100  # c1,c,hc
angle_coeff	14 ba    8.01600    8.01600    1.53000    1.53000  # c1,c1,c1
angle_coeff	15 ba    8.01600    8.01600    1.53000    1.53000  # c1,c1,c3h
angle_coeff	16 ba   20.75400   11.42100    1.53000    1.10100  # c1,c1,hc
angle_coeff	17 ba    2.68680   20.40330    1.53000    1.42000  # c1,c1,o3e
angle_coeff	18 ba    2.68680   20.40330    1.53000    1.42000  # c1,c1,oc
angle_coeff	19 ba   20.40330    2.68680    1.53000    1.42000  # c1,c1,oh
angle_coeff	20 ba    8.01600    8.01600    1.53000    1.53000  # c1,c3h,c3h
angle_coeff	21 ba   20.75400   11.42100    1.53000    1.10100  # c1,c3h,hc
angle_coeff	22 ba    2.68680   20.40330    1.53000    1.42000  # c1,c3h,o3e
angle_coeff	23 ba   -2.81120   -2.81120    1.42000    1.42000  # c1,o3e,c1
angle_coeff	24 ba   -2.81120   -2.81120    1.42000    1.42000  # c1,oc,c1
angle_coeff	25 ba    0.00000    0.00000    1.42000    0.96000  # c1,oh,h
angle_coeff	26 ba   11.42100   20.75400    1.53000    1.10100  # c3h,c,hc
angle_coeff	27 ba   11.42100   20.75400    1.53000    1.10100  # c3h,c1,hc
angle_coeff	28 ba   11.42100   20.75400    1.53000    1.10100  # c3h,c3h,hc
angle_coeff	29 ba   20.40330    2.68680    1.53000    1.42000  # c3h,c3h,o3e
angle_coeff	30 ba   -2.81120   -2.81120    1.42000    1.42000  # c3h,o3e,c3h
angle_coeff	31 ba   18.10300   18.10300    1.10100    1.10100  # hc,c,hc
angle_coeff	32 ba    4.61890   55.32700    1.10100    1.42000  # hc,c1,o3e
angle_coeff	33 ba    4.61890   55.32700    1.10100    1.42000  # hc,c1,oc
angle_coeff	34 ba   55.32700    4.61890    1.10100    1.42000  # hc,c1,oh
angle_coeff	35 ba    4.61890   55.32700    1.10100    1.42000  # hc,c3h,o3e

# Dihedral Coeffs

dihedral_coeff	 1    0.00000    0.00000    0.05140    0.00000   -0.14300    0.00000  # c,c,c1,c1
dihedral_coeff	 2    0.00000    0.00000    0.03160    0.00000   -0.16810    0.00000  # c,c,c1,hc
dihedral_coeff	 3    0.71370    0.00000    0.26600    0.00000   -0.25450    0.00000  # c,c,c1,oc
dihedral_coeff	 4    0.00000    0.00000    0.05140    0.00000   -0.14300    0.00000  # c,c1,c,c1
dihedral_coeff	 5    0.00000    0.00000    0.03160    0.00000   -0.16810    0.00000  # c,c1,c,hc
dihedral_coeff	 6    0.00000    0.00000    0.05140    0.00000   -0.14300    0.00000  # c,c1,c1,c
dihedral_coeff	 7    0.00000    0.00000    0.05140    0.00000   -0.14300    0.00000  # c,c1,c1,c1
dihedral_coeff	 8    0.00000    0.00000    0.05140    0.00000   -0.14300    0.00000  # c,c1,c1,c3h
dihedral_coeff	 9    0.00000    0.00000    0.03160    0.00000   -0.16810    0.00000  # c,c1,c1,hc
dihedral_coeff	10    0.71370    0.00000    0.26600    0.00000   -0.25450    0.00000  # c,c1,c1,o3e
dihedral_coeff	11    0.71370    0.00000    0.26600    0.00000   -0.25450    0.00000  # c,c1,c1,oc
dihedral_coeff	12    0.71370    0.00000    0.26600    0.00000   -0.25450    0.00000  # c,c1,c1,oh
dihedral_coeff	13   -0.52030    0.00000   -0.30280    0.00000   -0.34500    0.00000  # c,c1,o3e,c1
dihedral_coeff	14   -0.52030    0.00000   -0.30280    0.00000   -0.34500    0.00000  # c,c1,oc,c1
dihedral_coeff	15    0.00000    0.00000    0.05140    0.00000   -0.14300    0.00000  # c,c3h,c3h,c1
dihedral_coeff	16    0.00000    0.00000    0.03160    0.00000   -0.16810    0.00000  # c,c3h,c3h,hc
dihedral_coeff	17    0.71370    0.00000    0.26600    0.00000   -0.25450    0.00000  # c,c3h,c3h,o3e
dihedral_coeff	18   -0.52030    0.00000   -0.30280    0.00000   -0.34500    0.00000  # c,c3h,o3e,c3h
dihedral_coeff	19    0.00000    0.00000    0.05140    0.00000   -0.14300    0.00000  # c1,c,c,c1
dihedral_coeff	20    0.00000    0.00000    0.03160    0.00000   -0.16810    0.00000  # c1,c,c,hc
dihedral_coeff	21    0.00000    0.00000    0.05140    0.00000   -0.14300    0.00000  # c1,c,c1,c1
dihedral_coeff	22    0.00000    0.00000    0.03160    0.00000   -0.16810    0.00000  # c1,c,c1,hc
dihedral_coeff	23    0.71370    0.00000    0.26600    0.00000   -0.25450    0.00000  # c1,c,c1,o3e
dihedral_coeff	24    0.71370    0.00000    0.26600    0.00000   -0.25450    0.00000  # c1,c,c1,oc
dihedral_coeff	25    0.00000    0.00000    0.05140    0.00000   -0.14300    0.00000  # c1,c,c3h,c3h
dihedral_coeff	26    0.00000    0.00000    0.03160    0.00000   -0.16810    0.00000  # c1,c,c3h,hc
dihedral_coeff	27    0.71370    0.00000    0.26600    0.00000   -0.25450    0.00000  # c1,c,c3h,o3e
dihedral_coeff	28    0.00000    0.00000    0.05140    0.00000   -0.14300    0.00000  # c1,c1,c,c3h
dihedral_coeff	29    0.00000    0.00000    0.03160    0.00000   -0.16810    0.00000  # c1,c1,c,hc
dihedral_coeff	30    0.00000    0.00000    0.05140    0.00000   -0.14300    0.00000  # c1,c1,c1,c1
dihedral_coeff	31    0.00000    0.00000    0.05140    0.00000   -0.14300    0.00000  # c1,c1,c1,c3h
dihedral_coeff	32    0.00000    0.00000    0.03160    0.00000   -0.16810    0.00000  # c1,c1,c1,hc
dihedral_coeff	33    0.71370    0.00000    0.26600    0.00000   -0.25450    0.00000  # c1,c1,c1,o3e
dihedral_coeff	34    0.71370    0.00000    0.26600    0.00000   -0.25450    0.00000  # c1,c1,c1,oc
dihedral_coeff	35    0.71370    0.00000    0.26600    0.00000   -0.25450    0.00000  # c1,c1,c1,oh
dihedral_coeff	36    0.00000    0.00000    0.05140    0.00000   -0.14300    0.00000  # c1,c1,c3h,c3h
dihedral_coeff	37    0.00000    0.00000    0.03160    0.00000   -0.16810    0.00000  # c1,c1,c3h,hc
dihedral_coeff	38    0.71370    0.00000    0.26600    0.00000   -0.25450    0.00000  # c1,c1,c3h,o3e
dihedral_coeff	39   -0.52030    0.00000   -0.30280    0.00000   -0.34500    0.00000  # c1,c1,o3e,c1
dihedral_coeff	40   -0.52030    0.00000   -0.30280    0.00000   -0.34500    0.00000  # c1,c1,oc,c1
dihedral_coeff	41    0.00000    0.00000    0.00000    0.00000    0.13000  180.00000  # c1,c1,oh,h
dihedral_coeff	42    0.00000    0.00000    0.03160    0.00000   -0.16810    0.00000  # c1,c3h,c3h,hc
dihedral_coeff	43    0.71370    0.00000    0.26600    0.00000   -0.25450    0.00000  # c1,c3h,c3h,o3e
dihedral_coeff	44   -0.52030    0.00000   -0.30280    0.00000   -0.34500    0.00000  # c1,c3h,o3e,c3h
dihedral_coeff	45    0.53020    0.00000    0.00000    0.00000   -0.39660    0.00000  # c1,o3e,c1,hc
dihedral_coeff	46    0.53020    0.00000    0.00000    0.00000   -0.39660    0.00000  # c1,oc,c1,hc
dihedral_coeff	47    0.00000    0.00000    0.03160    0.00000   -0.16810    0.00000  # c3h,c,c1,hc
dihedral_coeff	48    0.00000    0.00000    0.03160    0.00000   -0.16810    0.00000  # c3h,c1,c1,hc
dihedral_coeff	49    0.00000    0.00000    0.03160    0.00000   -0.16810    0.00000  # c3h,c3h,c,hc
dihedral_coeff	50    0.00000    0.00000    0.03160    0.00000   -0.16810    0.00000  # c3h,c3h,c1,hc
dihedral_coeff	51    0.53020    0.00000    0.00000    0.00000   -0.39660    0.00000  # c3h,o3e,c3h,hc
dihedral_coeff	52    0.00000    0.00000    0.00000    0.00000    0.13000  180.00000  # h,oh,c1,hc
dihedral_coeff	53   -0.14320    0.00000    0.06170    0.00000   -0.10830    0.00000  # hc,c,c,hc
dihedral_coeff	54   -0.14320    0.00000    0.06170    0.00000   -0.10830    0.00000  # hc,c,c1,hc
dihedral_coeff	55   -0.14350    0.00000    0.25300    0.00000   -0.09050    0.00000  # hc,c,c1,o3e
dihedral_coeff	56   -0.14350    0.00000    0.25300    0.00000   -0.09050    0.00000  # hc,c,c1,oc
dihedral_coeff	57   -0.14320    0.00000    0.06170    0.00000   -0.10830    0.00000  # hc,c,c3h,hc
dihedral_coeff	58   -0.14350    0.00000    0.25300    0.00000   -0.09050    0.00000  # hc,c,c3h,o3e
dihedral_coeff	59   -0.14320    0.00000    0.06170    0.00000   -0.10830    0.00000  # hc,c1,c1,hc
dihedral_coeff	60   -0.14350    0.00000    0.25300    0.00000   -0.09050    0.00000  # hc,c1,c1,o3e
dihedral_coeff	61   -0.14350    0.00000    0.25300    0.00000   -0.09050    0.00000  # hc,c1,c1,oc
dihedral_coeff	62   -0.14350    0.00000    0.25300    0.00000   -0.09050    0.00000  # hc,c1,c1,oh
dihedral_coeff	63   -0.14320    0.00000    0.06170    0.00000   -0.10830    0.00000  # hc,c1,c3h,hc
dihedral_coeff	64   -0.14350    0.00000    0.25300    0.00000   -0.09050    0.00000  # hc,c1,c3h,o3e
dihedral_coeff	65   -0.14320    0.00000    0.06170    0.00000   -0.10830    0.00000  # hc,c3h,c3h,hc
dihedral_coeff	66   -0.14350    0.00000    0.25300    0.00000   -0.09050    0.00000  # hc,c3h,c3h,o3e
dihedral_coeff	67   -0.18200    0.00000   -0.10840    0.00000   -0.70470    0.00000  # oc,c1,c1,oc
dihedral_coeff	68   -0.18200    0.00000   -0.10840    0.00000   -0.70470    0.00000  # oc,c1,c1,oh

# MiddleBondTorsion Coeffs

dihedral_coeff	 1 mbt  -17.78700   -7.18770    0.00000    1.53000  # c,c,c1,c1
dihedral_coeff	 2 mbt  -14.87900   -3.65810   -0.31380    1.53000  # c,c,c1,hc
dihedral_coeff	 3 mbt  -21.88420   -7.67640   -0.68680    1.53000  # c,c,c1,oc
dihedral_coeff	 4 mbt  -17.78700   -7.18770    0.00000    1.53000  # c,c1,c,c1
dihedral_coeff	 5 mbt  -14.87900   -3.65810   -0.31380    1.53000  # c,c1,c,hc
dihedral_coeff	 6 mbt  -17.78700   -7.18770    0.00000    1.53000  # c,c1,c1,c
dihedral_coeff	 7 mbt  -17.78700   -7.18770    0.00000    1.53000  # c,c1,c1,c1
dihedral_coeff	 8 mbt  -17.78700   -7.18770    0.00000    1.53000  # c,c1,c1,c3h
dihedral_coeff	 9 mbt  -14.87900   -3.65810   -0.31380    1.53000  # c,c1,c1,hc
dihedral_coeff	10 mbt  -21.88420   -7.67640   -0.68680    1.53000  # c,c1,c1,o3e
dihedral_coeff	11 mbt  -21.88420   -7.67640   -0.68680    1.53000  # c,c1,c1,oc
dihedral_coeff	12 mbt  -21.88420   -7.67640   -0.68680    1.53000  # c,c1,c1,oh
dihedral_coeff	13 mbt   -5.92880   -2.70070   -0.31750    1.42000  # c,c1,o3e,c1
dihedral_coeff	14 mbt   -5.92880   -2.70070   -0.31750    1.42000  # c,c1,oc,c1
dihedral_coeff	15 mbt  -17.78700   -7.18770    0.00000    1.53000  # c,c3h,c3h,c1
dihedral_coeff	16 mbt  -14.87900   -3.65810   -0.31380    1.53000  # c,c3h,c3h,hc
dihedral_coeff	17 mbt  -21.88420   -7.67640   -0.68680    1.53000  # c,c3h,c3h,o3e
dihedral_coeff	18 mbt   -5.92880   -2.70070   -0.31750    1.42000  # c,c3h,o3e,c3h
dihedral_coeff	19 mbt  -17.78700   -7.18770    0.00000    1.53000  # c1,c,c,c1
dihedral_coeff	20 mbt  -14.87900   -3.65810   -0.31380    1.53000  # c1,c,c,hc
dihedral_coeff	21 mbt  -17.78700   -7.18770    0.00000    1.53000  # c1,c,c1,c1
dihedral_coeff	22 mbt  -14.87900   -3.65810   -0.31380    1.53000  # c1,c,c1,hc
dihedral_coeff	23 mbt  -21.88420   -7.67640   -0.68680    1.53000  # c1,c,c1,o3e
dihedral_coeff	24 mbt  -21.88420   -7.67640   -0.68680    1.53000  # c1,c,c1,oc
dihedral_coeff	25 mbt  -17.78700   -7.18770    0.00000    1.53000  # c1,c,c3h,c3h
dihedral_coeff	26 mbt  -14.87900   -3.65810   -0.31380    1.53000  # c1,c,c3h,hc
dihedral_coeff	27 mbt  -21.88420   -7.67640   -0.68680    1.53000  # c1,c,c3h,o3e
dihedral_coeff	28 mbt  -17.78700   -7.18770    0.00000    1.53000  # c1,c1,c,c3h
dihedral_coeff	29 mbt  -14.87900   -3.65810   -0.31380    1.53000  # c1,c1,c,hc
dihedral_coeff	30 mbt  -17.78700   -7.18770    0.00000    1.53000  # c1,c1,c1,c1
dihedral_coeff	31 mbt  -17.78700   -7.18770    0.00000    1.53000  # c1,c1,c1,c3h
dihedral_coeff	32 mbt  -14.87900   -3.65810   -0.31380    1.53000  # c1,c1,c1,hc
dihedral_coeff	33 mbt  -21.88420   -7.67640   -0.68680    1.53000  # c1,c1,c1,o3e
dihedral_coeff	34 mbt  -21.88420   -7.67640   -0.68680    1.53000  # c1,c1,c1,oc
dihedral_coeff	35 mbt  -21.88420   -7.67640   -0.68680    1.53000  # c1,c1,c1,oh
dihedral_coeff	36 mbt  -17.78700   -7.18770    0.00000    1.53000  # c1,c1,c3h,c3h
dihedral_coeff	37 mbt  -14.87900   -3.65810   -0.31380    1.53000  # c1,c1,c3h,hc
dihedral_coeff	38 mbt  -21.88420   -7.67640   -0.68680    1.53000  # c1,c1,c3h,o3e
dihedral_coeff	39 mbt   -5.92880   -2.70070   -0.31750    1.42000  # c1,c1,o3e,c1
dihedral_coeff	40 mbt   -5.92880   -2.70070   -0.31750    1.42000  # c1,c1,oc,c1
dihedral_coeff	41 mbt    0.00000    0.00000    0.00000    1.42000  # c1,c1,oh,h
dihedral_coeff	42 mbt  -14.87900   -3.65810   -0.31380    1.53000  # c1,c3h,c3h,hc
dihedral_coeff	43 mbt  -21.88420   -7.67640   -0.68680    1.53000  # c1,c3h,c3h,o3e
dihedral_coeff	44 mbt   -5.92880   -2.70070   -0.31750    1.42000  # c1,c3h,o3e,c3h
dihedral_coeff	45 mbt   -6.80070   -4.65460   -1.41010    1.42000  # c1,o3e,c1,hc
dihedral_coeff	46 mbt   -6.80070   -4.65460   -1.41010    1.42000  # c1,oc,c1,hc
dihedral_coeff	47 mbt  -14.87900   -3.65810   -0.31380    1.53000  # c3h,c,c1,hc
dihedral_coeff	48 mbt  -14.87900   -3.65810   -0.31380    1.53000  # c3h,c1,c1,hc
dihedral_coeff	49 mbt  -14.87900   -3.65810   -0.31380    1.53000  # c3h,c3h,c,hc
dihedral_coeff	50 mbt  -14.87900   -3.65810   -0.31380    1.53000  # c3h,c3h,c1,hc
dihedral_coeff	51 mbt   -6.80070   -4.65460   -1.41010    1.42000  # c3h,o3e,c3h,hc
dihedral_coeff	52 mbt    0.00000    0.00000    0.00000    1.42000  # h,oh,c1,hc
dihedral_coeff	53 mbt  -14.26100   -0.53220   -0.48640    1.53000  # hc,c,c,hc
dihedral_coeff	54 mbt  -14.26100   -0.53220   -0.48640    1.53000  # hc,c,c1,hc
dihedral_coeff	55 mbt  -16.79750   -1.22960   -0.27500    1.53000  # hc,c,c1,o3e
dihedral_coeff	56 mbt  -16.79750   -1.22960   -0.27500    1.53000  # hc,c,c1,oc
dihedral_coeff	57 mbt  -14.26100   -0.53220   -0.48640    1.53000  # hc,c,c3h,hc
dihedral_coeff	58 mbt  -16.79750   -1.22960   -0.27500    1.53000  # hc,c,c3h,o3e
dihedral_coeff	59 mbt  -14.26100   -0.53220   -0.48640    1.53000  # hc,c1,c1,hc
dihedral_coeff	60 mbt  -16.79750   -1.22960   -0.27500    1.53000  # hc,c1,c1,o3e
dihedral_coeff	61 mbt  -16.79750   -1.22960   -0.27500    1.53000  # hc,c1,c1,oc
dihedral_coeff	62 mbt  -16.79750   -1.22960   -0.27500    1.53000  # hc,c1,c1,oh
dihedral_coeff	63 mbt  -14.26100   -0.53220   -0.48640    1.53000  # hc,c1,c3h,hc
dihedral_coeff	64 mbt  -16.79750   -1.22960   -0.27500    1.53000  # hc,c1,c3h,o3e
dihedral_coeff	65 mbt  -14.26100   -0.53220   -0.48640    1.53000  # hc,c3h,c3h,hc
dihedral_coeff	66 mbt  -16.79750   -1.22960   -0.27500    1.53000  # hc,c3h,c3h,o3e
dihedral_coeff	67 mbt  -17.25850   -3.61570   -0.83640    1.53000  # oc,c1,c1,oc
dihedral_coeff	68 mbt  -17.25850   -3.61570   -0.83640    1.53000  # oc,c1,c1,oh

# EndBondTorsion Coeffs

dihedral_coeff	 1 ebt   -0.07320    0.00000    0.00000   -0.07320    0.00000    0.00000    1.53000    1.53000  # c,c,c1,c1
dihedral_coeff	 2 ebt    0.08140    0.05910    0.22190    0.24860    0.24220   -0.09250    1.53000    1.10100  # c,c,c1,hc
dihedral_coeff	 3 ebt    1.15380    0.84090   -0.91380   -0.31900    0.44110   -0.71740    1.53000    1.42000  # c,c,c1,oc
dihedral_coeff	 4 ebt   -0.07320    0.00000    0.00000   -0.07320    0.00000    0.00000    1.53000    1.53000  # c,c1,c,c1
dihedral_coeff	 5 ebt    0.08140    0.05910    0.22190    0.24860    0.24220   -0.09250    1.53000    1.10100  # c,c1,c,hc
dihedral_coeff	 6 ebt   -0.07320    0.00000    0.00000   -0.07320    0.00000    0.00000    1.53000    1.53000  # c,c1,c1,c
dihedral_coeff	 7 ebt   -0.07320    0.00000    0.00000   -0.07320    0.00000    0.00000    1.53000    1.53000  # c,c1,c1,c1
dihedral_coeff	 8 ebt   -0.07320    0.00000    0.00000   -0.07320    0.00000    0.00000    1.53000    1.53000  # c,c1,c1,c3h
dihedral_coeff	 9 ebt    0.08140    0.05910    0.22190    0.24860    0.24220   -0.09250    1.53000    1.10100  # c,c1,c1,hc
dihedral_coeff	10 ebt   -0.31900    0.44110   -0.71740    1.15380    0.84090   -0.91380    1.53000    1.42000  # c,c1,c1,o3e
dihedral_coeff	11 ebt    1.15380    0.84090   -0.91380   -0.31900    0.44110   -0.71740    1.53000    1.42000  # c,c1,c1,oc
dihedral_coeff	12 ebt    1.15380    0.84090   -0.91380   -0.31900    0.44110   -0.71740    1.53000    1.42000  # c,c1,c1,oh
dihedral_coeff	13 ebt    0.47410    1.26350    0.55760   -0.24560    1.05170   -0.77950    1.53000    1.42000  # c,c1,o3e,c1
dihedral_coeff	14 ebt    0.47410    1.26350    0.55760   -0.24560    1.05170   -0.77950    1.53000    1.42000  # c,c1,oc,c1
dihedral_coeff	15 ebt   -0.07320    0.00000    0.00000   -0.07320    0.00000    0.00000    1.53000    1.53000  # c,c3h,c3h,c1
dihedral_coeff	16 ebt    0.08140    0.05910    0.22190    0.24860    0.24220   -0.09250    1.53000    1.10100  # c,c3h,c3h,hc
dihedral_coeff	17 ebt   -0.31900    0.44110   -0.71740    1.15380    0.84090   -0.91380    1.53000    1.42000  # c,c3h,c3h,o3e
dihedral_coeff	18 ebt   -0.24560    1.05170   -0.77950    0.47410    1.26350    0.55760    1.53000    1.42000  # c,c3h,o3e,c3h
dihedral_coeff	19 ebt   -0.07320    0.00000    0.00000   -0.07320    0.00000    0.00000    1.53000    1.53000  # c1,c,c,c1
dihedral_coeff	20 ebt    0.24860    0.24220   -0.09250    0.08140    0.05910    0.22190    1.53000    1.10100  # c1,c,c,hc
dihedral_coeff	21 ebt   -0.07320    0.00000    0.00000   -0.07320    0.00000    0.00000    1.53000    1.53000  # c1,c,c1,c1
dihedral_coeff	22 ebt    0.24860    0.24220   -0.09250    0.08140    0.05910    0.22190    1.53000    1.10100  # c1,c,c1,hc
dihedral_coeff	23 ebt   -0.31900    0.44110   -0.71740    1.15380    0.84090   -0.91380    1.53000    1.42000  # c1,c,c1,o3e
dihedral_coeff	24 ebt   -0.31900    0.44110   -0.71740    1.15380    0.84090   -0.91380    1.53000    1.42000  # c1,c,c1,oc
dihedral_coeff	25 ebt   -0.07320    0.00000    0.00000   -0.07320    0.00000    0.00000    1.53000    1.53000  # c1,c,c3h,c3h
dihedral_coeff	26 ebt    0.24860    0.24220   -0.09250    0.08140    0.05910    0.22190    1.53000    1.10100  # c1,c,c3h,hc
dihedral_coeff	27 ebt   -0.31900    0.44110   -0.71740    1.15380    0.84090   -0.91380    1.53000    1.42000  # c1,c,c3h,o3e
dihedral_coeff	28 ebt   -0.07320    0.00000    0.00000   -0.07320    0.00000    0.00000    1.53000    1.53000  # c1,c1,c,c3h
dihedral_coeff	29 ebt    0.24860    0.24220   -0.09250    0.08140    0.05910    0.22190    1.53000    1.10100  # c1,c1,c,hc
dihedral_coeff	30 ebt   -0.07320    0.00000    0.00000   -0.07320    0.00000    0.00000    1.53000    1.53000  # c1,c1,c1,c1
dihedral_coeff	31 ebt   -0.07320    0.00000    0.00000   -0.07320    0.00000    0.00000    1.53000    1.53000  # c1,c1,c1,c3h
dihedral_coeff	32 ebt    0.24860    0.24220   -0.09250    0.08140    0.05910    0.22190    1.53000    1.10100  # c1,c1,c1,hc
dihedral_coeff	33 ebt   -0.31900    0.44110   -0.71740    1.15380    0.84090   -0.91380    1.53000    1.42000  # c1,c1,c1,o3e
dihedral_coeff	34 ebt   -0.31900    0.44110   -0.71740    1.15380    0.84090   -0.91380    1.53000    1.42000  # c1,c1,c1,oc
dihedral_coeff	35 ebt    1.15380    0.84090   -0.91380   -0.31900    0.44110   -0.71740    1.53000    1.42000  # c1,c1,c1,oh
dihedral_coeff	36 ebt   -0.07320    0.00000    0.00000   -0.07320    0.00000    0.00000    1.53000    1.53000  # c1,c1,c3h,c3h
dihedral_coeff	37 ebt    0.24860    0.24220   -0.09250    0.08140    0.05910    0.22190    1.53000    1.10100  # c1,c1,c3h,hc
dihedral_coeff	38 ebt   -0.31900    0.44110   -0.71740    1.15380    0.84090   -0.91380    1.53000    1.42000  # c1,c1,c3h,o3e
dihedral_coeff	39 ebt   -0.24560    1.05170   -0.77950    0.47410    1.26350    0.55760    1.53000    1.42000  # c1,c1,o3e,c1
dihedral_coeff	40 ebt   -0.24560    1.05170   -0.77950    0.47410    1.26350    0.55760    1.53000    1.42000  # c1,c1,oc,c1
dihedral_coeff	41 ebt    0.00000    0.00000    0.00000    0.00000    0.00000    0.00000    1.53000    0.96000  # c1,c1,oh,h
dihedral_coeff	42 ebt    0.24860    0.24220   -0.09250    0.08140    0.05910    0.22190    1.53000    1.10100  # c1,c3h,c3h,hc
dihedral_coeff	43 ebt   -0.31900    0.44110   -0.71740    1.15380    0.84090   -0.91380    1.53000    1.42000  # c1,c3h,c3h,o3e
dihedral_coeff	44 ebt   -0.24560    1.05170   -0.77950    0.47410    1.26350    0.55760    1.53000    1.42000  # c1,c3h,o3e,c3h
dihedral_coeff	45 ebt   -0.16200    0.15640   -1.14080   -0.60540    1.33390    0.96480    1.42000    1.10100  # c1,o3e,c1,hc
dihedral_coeff	46 ebt   -0.16200    0.15640   -1.14080   -0.60540    1.33390    0.96480    1.42000    1.10100  # c1,oc,c1,hc
dihedral_coeff	47 ebt    0.08140    0.05910    0.22190    0.24860    0.24220   -0.09250    1.53000    1.10100  # c3h,c,c1,hc
dihedral_coeff	48 ebt    0.08140    0.05910    0.22190    0.24860    0.24220   -0.09250    1.53000    1.10100  # c3h,c1,c1,hc
dihedral_coeff	49 ebt    0.08140    0.05910    0.22190    0.24860    0.24220   -0.09250    1.53000    1.10100  # c3h,c3h,c,hc
dihedral_coeff	50 ebt    0.08140    0.05910    0.22190    0.24860    0.24220   -0.09250    1.53000    1.10100  # c3h,c3h,c1,hc
dihedral_coeff	51 ebt   -0.60540    1.33390    0.96480   -0.16200    0.15640   -1.14080    1.42000    1.10100  # c3h,o3e,c3h,hc
dihedral_coeff	52 ebt    0.00000    0.00000    0.00000    0.00000    0.00000    0.00000    0.96000    1.10100  # h,oh,c1,hc
dihedral_coeff	53 ebt    0.21300    0.31200    0.07770    0.21300    0.31200    0.07770    1.10100    1.10100  # hc,c,c,hc
dihedral_coeff	54 ebt    0.21300    0.31200    0.07770    0.21300    0.31200    0.07770    1.10100    1.10100  # hc,c,c1,hc
dihedral_coeff	55 ebt    0.96810    0.95510    0.04360    0.59030    0.66690    0.85840    1.10100    1.42000  # hc,c,c1,o3e
dihedral_coeff	56 ebt    0.96810    0.95510    0.04360    0.59030    0.66690    0.85840    1.10100    1.42000  # hc,c,c1,oc
dihedral_coeff	57 ebt    0.21300    0.31200    0.07770    0.21300    0.31200    0.07770    1.10100    1.10100  # hc,c,c3h,hc
dihedral_coeff	58 ebt    0.96810    0.95510    0.04360    0.59030    0.66690    0.85840    1.10100    1.42000  # hc,c,c3h,o3e
dihedral_coeff	59 ebt    0.21300    0.31200    0.07770    0.21300    0.31200    0.07770    1.10100    1.10100  # hc,c1,c1,hc
dihedral_coeff	60 ebt    0.96810    0.95510    0.04360    0.59030    0.66690    0.85840    1.10100    1.42000  # hc,c1,c1,o3e
dihedral_coeff	61 ebt    0.96810    0.95510    0.04360    0.59030    0.66690    0.85840    1.10100    1.42000  # hc,c1,c1,oc
dihedral_coeff	62 ebt    0.59030    0.66690    0.85840    0.96810    0.95510    0.04360    1.10100    1.42000  # hc,c1,c1,oh
dihedral_coeff	63 ebt    0.21300    0.31200    0.07770    0.21300    0.31200    0.07770    1.10100    1.10100  # hc,c1,c3h,hc
dihedral_coeff	64 ebt    0.96810    0.95510    0.04360    0.59030    0.66690    0.85840    1.10100    1.42000  # hc,c1,c3h,o3e
dihedral_coeff	65 ebt    0.21300    0.31200    0.07770    0.21300    0.31200    0.07770    1.10100    1.10100  # hc,c3h,c3h,hc
dihedral_coeff	66 ebt    0.96810    0.95510    0.04360    0.59030    0.66690    0.85840    1.10100    1.42000  # hc,c3h,c3h,o3e
dihedral_coeff	67 ebt    1.01650    0.75530   -0.46090    1.01650    0.75530   -0.46090    1.42000    1.42000  # oc,c1,c1,oc
dihedral_coeff	68 ebt    1.01650    0.75530   -0.46090    1.01650    0.75530   -0.46090    1.42000    1.42000  # oc,c1,c1,oh

# AngleTorsion Coeffs

dihedral_coeff	 1 at    0.38860   -0.31390    0.13890    0.38860   -0.31390    0.13890  112.67000  112.67000  # c,c,c1,c1
dihedral_coeff	 2 at    0.31130    0.45160   -0.19880   -0.24540    0.00000   -0.11360  112.67000  110.77000  # c,c,c1,hc
dihedral_coeff	 3 at    0.96720   -0.75660   -1.23310    0.56230   -0.30410   -0.40150  112.67000  111.27000  # c,c,c1,oc
dihedral_coeff	 4 at    0.38860   -0.31390    0.13890    0.38860   -0.31390    0.13890  112.67000  112.67000  # c,c1,c,c1
dihedral_coeff	 5 at    0.31130    0.45160   -0.19880   -0.24540    0.00000   -0.11360  112.67000  110.77000  # c,c1,c,hc
dihedral_coeff	 6 at    0.38860   -0.31390    0.13890    0.38860   -0.31390    0.13890  112.67000  112.67000  # c,c1,c1,c
dihedral_coeff	 7 at    0.38860   -0.31390    0.13890    0.38860   -0.31390    0.13890  112.67000  112.67000  # c,c1,c1,c1
dihedral_coeff	 8 at    0.38860   -0.31390    0.13890    0.38860   -0.31390    0.13890  112.67000  112.67000  # c,c1,c1,c3h
dihedral_coeff	 9 at    0.31130    0.45160   -0.19880   -0.24540    0.00000   -0.11360  112.67000  110.77000  # c,c1,c1,hc
dihedral_coeff	10 at    0.56230   -0.30410   -0.40150    0.96720   -0.75660   -1.23310  112.67000  111.27000  # c,c1,c1,o3e
dihedral_coeff	11 at    0.96720   -0.75660   -1.23310    0.56230   -0.30410   -0.40150  112.67000  111.27000  # c,c1,c1,oc
dihedral_coeff	12 at    0.96720   -0.75660   -1.23310    0.56230   -0.30410   -0.40150  112.67000  111.27000  # c,c1,c1,oh
dihedral_coeff	13 at    0.56760    0.94500    0.07030   -2.74660    1.48770   -0.89550  111.27000  104.50000  # c,c1,o3e,c1
dihedral_coeff	14 at    0.56760    0.94500    0.07030   -2.74660    1.48770   -0.89550  111.27000  104.50000  # c,c1,oc,c1
dihedral_coeff	15 at    0.38860   -0.31390    0.13890    0.38860   -0.31390    0.13890  112.67000  112.67000  # c,c3h,c3h,c1
dihedral_coeff	16 at    0.31130    0.45160   -0.19880   -0.24540    0.00000   -0.11360  112.67000  110.77000  # c,c3h,c3h,hc
dihedral_coeff	17 at    0.56230   -0.30410   -0.40150    0.96720   -0.75660   -1.23310  112.67000  111.27000  # c,c3h,c3h,o3e
dihedral_coeff	18 at   -2.74660    1.48770   -0.89550    0.56760    0.94500    0.07030  111.27000  104.50000  # c,c3h,o3e,c3h
dihedral_coeff	19 at    0.38860   -0.31390    0.13890    0.38860   -0.31390    0.13890  112.67000  112.67000  # c1,c,c,c1
dihedral_coeff	20 at   -0.24540    0.00000   -0.11360    0.31130    0.45160   -0.19880  112.67000  110.77000  # c1,c,c,hc
dihedral_coeff	21 at    0.38860   -0.31390    0.13890    0.38860   -0.31390    0.13890  112.67000  112.67000  # c1,c,c1,c1
dihedral_coeff	22 at   -0.24540    0.00000   -0.11360    0.31130    0.45160   -0.19880  112.67000  110.77000  # c1,c,c1,hc
dihedral_coeff	23 at    0.56230   -0.30410   -0.40150    0.96720   -0.75660   -1.23310  112.67000  111.27000  # c1,c,c1,o3e
dihedral_coeff	24 at    0.56230   -0.30410   -0.40150    0.96720   -0.75660   -1.23310  112.67000  111.27000  # c1,c,c1,oc
dihedral_coeff	25 at    0.38860   -0.31390    0.13890    0.38860   -0.31390    0.13890  112.67000  112.67000  # c1,c,c3h,c3h
dihedral_coeff	26 at   -0.24540    0.00000   -0.11360    0.31130    0.45160   -0.19880  112.67000  110.77000  # c1,c,c3h,hc
dihedral_coeff	27 at    0.56230   -0.30410   -0.40150    0.96720   -0.75660   -1.23310  112.67000  111.27000  # c1,c,c3h,o3e
dihedral_coeff	28 at    0.38860   -0.31390    0.13890    0.38860   -0.31390    0.13890  112.67000  112.67000  # c1,c1,c,c3h
dihedral_coeff	29 at   -0.24540    0.00000   -0.11360    0.31130    0.45160   -0.19880  112.67000  110.77000  # c1,c1,c,hc
dihedral_coeff	30 at    0.38860   -0.31390    0.13890    0.38860   -0.31390    0.13890  112.67000  112.67000  # c1,c1,c1,c1
dihedral_coeff	31 at    0.38860   -0.31390    0.13890    0.38860   -0.31390    0.13890  112.67000  112.67000  # c1,c1,c1,c3h
dihedral_coeff	32 at   -0.24540    0.00000   -0.11360    0.31130    0.45160   -0.19880  112.67000  110.77000  # c1,c1,c1,hc
dihedral_coeff	33 at    0.56230   -0.30410   -0.40150    0.96720   -0.75660   -1.23310  112.67000  111.27000  # c1,c1,c1,o3e
dihedral_coeff	34 at    0.56230   -0.30410   -0.40150    0.96720   -0.75660   -1.23310  112.67000  111.27000  # c1,c1,c1,oc
dihedral_coeff	35 at    0.96720   -0.75660   -1.23310    0.56230   -0.30410   -0.40150  112.67000  111.27000  # c1,c1,c1,oh
dihedral_coeff	36 at    0.38860   -0.31390    0.13890    0.38860   -0.31390    0.13890  112.67000  112.67000  # c1,c1,c3h,c3h
dihedral_coeff	37 at   -0.24540    0.00000   -0.11360    0.31130    0.45160   -0.19880  112.67000  110.77000  # c1,c1,c3h,hc
dihedral_coeff	38 at    0.56230   -0.30410   -0.40150    0.96720   -0.75660   -1.23310  112.67000  111.27000  # c1,c1,c3h,o3e
dihedral_coeff	39 at   -2.74660    1.48770   -0.89550    0.56760    0.94500    0.07030  111.27000  104.50000  # c1,c1,o3e,c1
dihedral_coeff	40 at   -2.74660    1.48770   -0.89550    0.56760    0.94500    0.07030  111.27000  104.50000  # c1,c1,oc,c1
dihedral_coeff	41 at    0.00000    0.00000    0.00000    0.00000    0.00000    0.00000  111.27000  109.00000  # c1,c1,oh,h
dihedral_coeff	42 at   -0.24540    0.00000   -0.11360    0.31130    0.45160   -0.19880  112.67000  110.77000  # c1,c3h,c3h,hc
dihedral_coeff	43 at    0.56230   -0.30410   -0.40150    0.96720   -0.75660   -1.23310  112.67000  111.27000  # c1,c3h,c3h,o3e
dihedral_coeff	44 at   -2.74660    1.48770   -0.89550    0.56760    0.94500    0.07030  111.27000  104.50000  # c1,c3h,o3e,c3h
dihedral_coeff	45 at   -0.77770    0.43400   -0.66530   -1.82340    1.63930    0.51440  104.50000  108.72800  # c1,o3e,c1,hc
dihedral_coeff	46 at   -0.77770    0.43400   -0.66530   -1.82340    1.63930    0.51440  104.50000  108.72800  # c1,oc,c1,hc
dihedral_coeff	47 at    0.31130    0.45160   -0.19880   -0.24540    0.00000   -0.11360  112.67000  110.77000  # c3h,c,c1,hc
dihedral_coeff	48 at    0.31130    0.45160   -0.19880   -0.24540    0.00000   -0.11360  112.67000  110.77000  # c3h,c1,c1,hc
dihedral_coeff	49 at    0.31130    0.45160   -0.19880   -0.24540    0.00000   -0.11360  112.67000  110.77000  # c3h,c3h,c,hc
dihedral_coeff	50 at    0.31130    0.45160   -0.19880   -0.24540    0.00000   -0.11360  112.67000  110.77000  # c3h,c3h,c1,hc
dihedral_coeff	51 at   -1.82340    1.63930    0.51440   -0.77770    0.43400   -0.66530  104.50000  108.72800  # c3h,o3e,c3h,hc
dihedral_coeff	52 at    0.00000    0.00000    0.00000    0.00000    0.00000    0.00000  109.00000  108.72800  # h,oh,c1,hc
dihedral_coeff	53 at   -0.80850    0.55690   -0.24660   -0.80850    0.55690   -0.24660  110.77000  110.77000  # hc,c,c,hc
dihedral_coeff	54 at   -0.80850    0.55690   -0.24660   -0.80850    0.55690   -0.24660  110.77000  110.77000  # hc,c,c1,hc
dihedral_coeff	55 at    2.36680    2.49200   -1.01220   -0.18920    0.49180    0.72730  110.77000  111.27000  # hc,c,c1,o3e
dihedral_coeff	56 at    2.36680    2.49200   -1.01220   -0.18920    0.49180    0.72730  110.77000  111.27000  # hc,c,c1,oc
dihedral_coeff	57 at   -0.80850    0.55690   -0.24660   -0.80850    0.55690   -0.24660  110.77000  110.77000  # hc,c,c3h,hc
dihedral_coeff	58 at    2.36680    2.49200   -1.01220   -0.18920    0.49180    0.72730  110.77000  111.27000  # hc,c,c3h,o3e
dihedral_coeff	59 at   -0.80850    0.55690   -0.24660   -0.80850    0.55690   -0.24660  110.77000  110.77000  # hc,c1,c1,hc
dihedral_coeff	60 at    2.36680    2.49200   -1.01220   -0.18920    0.49180    0.72730  110.77000  111.27000  # hc,c1,c1,o3e
dihedral_coeff	61 at    2.36680    2.49200   -1.01220   -0.18920    0.49180    0.72730  110.77000  111.27000  # hc,c1,c1,oc
dihedral_coeff	62 at   -0.18920    0.49180    0.72730    2.36680    2.49200   -1.01220  110.77000  111.27000  # hc,c1,c1,oh
dihedral_coeff	63 at   -0.80850    0.55690   -0.24660   -0.80850    0.55690   -0.24660  110.77000  110.77000  # hc,c1,c3h,hc
dihedral_coeff	64 at    2.36680    2.49200   -1.01220   -0.18920    0.49180    0.72730  110.77000  111.27000  # hc,c1,c3h,o3e
dihedral_coeff	65 at   -0.80850    0.55690   -0.24660   -0.80850    0.55690   -0.24660  110.77000  110.77000  # hc,c3h,c3h,hc
dihedral_coeff	66 at    2.36680    2.49200   -1.01220   -0.18920    0.49180    0.72730  110.77000  111.27000  # hc,c3h,c3h,o3e
dihedral_coeff	67 at    0.55110    0.97370   -0.66730    0.55110    0.97370   -0.66730  111.27000  111.27000  # oc,c1,c1,oc
dihedral_coeff	68 at    0.55110    0.97370   -0.66730    0.55110    0.97370   -0.66730  111.27000  111.27000  # oc,c1,c1,oh

# AngleAngleTorsion Coeffs

dihedral_coeff	 1 aat  -22.04500  112.67000  112.67000  # c,c,c1,c1
dihedral_coeff	 2 aat  -16.16400  112.67000  110.77000  # c,c,c1,hc
dihedral_coeff	 3 aat  -29.04200  112.67000  111.27000  # c,c,c1,oc
dihedral_coeff	 4 aat  -22.04500  112.67000  112.67000  # c,c1,c,c1
dihedral_coeff	 5 aat  -16.16400  112.67000  110.77000  # c,c1,c,hc
dihedral_coeff	 6 aat  -22.04500  112.67000  112.67000  # c,c1,c1,c
dihedral_coeff	 7 aat  -22.04500  112.67000  112.67000  # c,c1,c1,c1
dihedral_coeff	 8 aat  -22.04500  112.67000  112.67000  # c,c1,c1,c3h
dihedral_coeff	 9 aat  -16.16400  112.67000  110.77000  # c,c1,c1,hc
dihedral_coeff	10 aat  -29.04200  112.67000  111.27000  # c,c1,c1,o3e
dihedral_coeff	11 aat  -29.04200  112.67000  111.27000  # c,c1,c1,oc
dihedral_coeff	12 aat  -29.04200  112.67000  111.27000  # c,c1,c1,oh
dihedral_coeff	13 aat  -19.00590  111.27000  104.50000  # c,c1,o3e,c1
dihedral_coeff	14 aat  -19.00590  111.27000  104.50000  # c,c1,oc,c1
dihedral_coeff	15 aat  -22.04500  112.67000  112.67000  # c,c3h,c3h,c1
dihedral_coeff	16 aat  -16.16400  112.67000  110.77000  # c,c3h,c3h,hc
dihedral_coeff	17 aat  -29.04200  112.67000  111.27000  # c,c3h,c3h,o3e
dihedral_coeff	18 aat  -19.00590  111.27000  104.50000  # c,c3h,o3e,c3h
dihedral_coeff	19 aat  -22.04500  112.67000  112.67000  # c1,c,c,c1
dihedral_coeff	20 aat  -16.16400  112.67000  110.77000  # c1,c,c,hc
dihedral_coeff	21 aat  -22.04500  112.67000  112.67000  # c1,c,c1,c1
dihedral_coeff	22 aat  -16.16400  112.67000  110.77000  # c1,c,c1,hc
dihedral_coeff	23 aat  -29.04200  112.67000  111.27000  # c1,c,c1,o3e
dihedral_coeff	24 aat  -29.04200  112.67000  111.27000  # c1,c,c1,oc
dihedral_coeff	25 aat  -22.04500  112.67000  112.67000  # c1,c,c3h,c3h
dihedral_coeff	26 aat  -16.16400  112.67000  110.77000  # c1,c,c3h,hc
dihedral_coeff	27 aat  -29.04200  112.67000  111.27000  # c1,c,c3h,o3e
dihedral_coeff	28 aat  -22.04500  112.67000  112.67000  # c1,c1,c,c3h
dihedral_coeff	29 aat  -16.16400  112.67000  110.77000  # c1,c1,c,hc
dihedral_coeff	30 aat  -22.04500  112.67000  112.67000  # c1,c1,c1,c1
dihedral_coeff	31 aat  -22.04500  112.67000  112.67000  # c1,c1,c1,c3h
dihedral_coeff	32 aat  -16.16400  112.67000  110.77000  # c1,c1,c1,hc
dihedral_coeff	33 aat  -29.04200  112.67000  111.27000  # c1,c1,c1,o3e
dihedral_coeff	34 aat  -29.04200  112.67000  111.27000  # c1,c1,c1,oc
dihedral_coeff	35 aat  -29.04200  112.67000  111.27000  # c1,c1,c1,oh
dihedral_coeff	36 aat  -22.04500  112.67000  112.67000  # c1,c1,c3h,c3h
dihedral_coeff	37 aat  -16.16400  112.67000  110.77000  # c1,c1,c3h,hc
dihedral_coeff	38 aat  -29.04200  112.67000  111.27000  # c1,c1,c3h,o3e
dihedral_coeff	39 aat  -19.00590  111.27000  104.50000  # c1,c1,o3e,c1
dihedral_coeff	40 aat  -19.00590  111.27000  104.50000  # c1,c1,oc,c1
dihedral_coeff	41 aat    0.00000  111.27000  109.00000  # c1,c1,oh,h
dihedral_coeff	42 aat  -16.16400  112.67000  110.77000  # c1,c3h,c3h,hc
dihedral_coeff	43 aat  -29.04200  112.67000  111.27000  # c1,c3h,c3h,o3e
dihedral_coeff	44 aat  -19.00590  111.27000  104.50000  # c1,c3h,o3e,c3h
dihedral_coeff	45 aat  -16.44380  104.50000  108.72800  # c1,o3e,c1,hc
dihedral_coeff	46 aat  -16.44380  104.50000  108.72800  # c1,oc,c1,hc
dihedral_coeff	47 aat  -16.16400  112.67000  110.77000  # c3h,c,c1,hc
dihedral_coeff	48 aat  -16.16400  112.67000  110.77000  # c3h,c1,c1,hc
dihedral_coeff	49 aat  -16.16400  112.67000  110.77000  # c3h,c3h,c,hc
dihedral_coeff	50 aat  -16.16400  112.67000  110.77000  # c3h,c3h,c1,hc
dihedral_coeff	51 aat  -16.44380  104.50000  108.72800  # c3h,o3e,c3h,hc
dihedral_coeff	52 aat    0.00000  109.00000  108.72800  # h,oh,c1,hc
dihedral_coeff	53 aat  -12.56400  110.77000  110.77000  # hc,c,c,hc
dihedral_coeff	54 aat  -12.56400  110.77000  110.77000  # hc,c,c1,hc
dihedral_coeff	55 aat  -20.20060  110.77000  111.27000  # hc,c,c1,o3e
dihedral_coeff	56 aat  -20.20060  110.77000  111.27000  # hc,c,c1,oc
dihedral_coeff	57 aat  -12.56400  110.77000  110.77000  # hc,c,c3h,hc
dihedral_coeff	58 aat  -20.20060  110.77000  111.27000  # hc,c,c3h,o3e
dihedral_coeff	59 aat  -12.56400  110.77000  110.77000  # hc,c1,c1,hc
dihedral_coeff	60 aat  -20.20060  110.77000  111.27000  # hc,c1,c1,o3e
dihedral_coeff	61 aat  -20.20060  110.77000  111.27000  # hc,c1,c1,oc
dihedral_coeff	62 aat  -20.20060  110.77000  111.27000  # hc,c1,c1,oh
dihedral_coeff	63 aat  -12.56400  110.77000  110.77000  # hc,c1,c3h,hc
dihedral_coeff	64 aat  -20.20060  110.77000  111.27000  # hc,c1,c3h,o3e
dihedral_coeff	65 aat  -12.56400  110.77000  110.77000  # hc,c3h,c3h,hc
dihedral_coeff	66 aat  -20.20060  110.77000  111.27000  # hc,c3h,c3h,o3e
dihedral_coeff	67 aat  -14.04840  111.27000  111.27000  # oc,c1,c1,oc
dihedral_coeff	68 aat  -14.04840  111.27000  111.27000  # oc,c1,c1,oh

# BondBond13 Coeffs

dihedral_coeff	 1 bb13    0.00000    1.53000    1.53000  # c,c,c1,c1
dihedral_coeff	 2 bb13    0.00000    1.53000    1.10100  # c,c,c1,hc
dihedral_coeff	 3 bb13    0.00000    1.53000    1.42000  # c,c,c1,oc
dihedral_coeff	 4 bb13    0.00000    1.53000    1.53000  # c,c1,c,c1
dihedral_coeff	 5 bb13    0.00000    1.53000    1.10100  # c,c1,c,hc
dihedral_coeff	 6 bb13    0.00000    1.53000    1.53000  # c,c1,c1,c
dihedral_coeff	 7 bb13    0.00000    1.53000    1.53000  # c,c1,c1,c1
dihedral_coeff	 8 bb13    0.00000    1.53000    1.53000  # c,c1,c1,c3h
dihedral_coeff	 9 bb13    0.00000    1.53000    1.10100  # c,c1,c1,hc
dihedral_coeff	10 bb13    0.00000    1.53000    1.42000  # c,c1,c1,o3e
dihedral_coeff	11 bb13    0.00000    1.53000    1.42000  # c,c1,c1,oc
dihedral_coeff	12 bb13    0.00000    1.53000    1.42000  # c,c1,c1,oh
dihedral_coeff	13 bb13    0.00000    1.53000    1.42000  # c,c1,o3e,c1
dihedral_coeff	14 bb13    0.00000    1.53000    1.42000  # c,c1,oc,c1
dihedral_coeff	15 bb13    0.00000    1.53000    1.53000  # c,c3h,c3h,c1
dihedral_coeff	16 bb13    0.00000    1.53000    1.10100  # c,c3h,c3h,hc
dihedral_coeff	17 bb13    0.00000    1.53000    1.42000  # c,c3h,c3h,o3e
dihedral_coeff	18 bb13    0.00000    1.53000    1.42000  # c,c3h,o3e,c3h
dihedral_coeff	19 bb13    0.00000    1.53000    1.53000  # c1,c,c,c1
dihedral_coeff	20 bb13    0.00000    1.53000    1.10100  # c1,c,c,hc
dihedral_coeff	21 bb13    0.00000    1.53000    1.53000  # c1,c,c1,c1
dihedral_coeff	22 bb13    0.00000    1.53000    1.10100  # c1,c,c1,hc
dihedral_coeff	23 bb13    0.00000    1.53000    1.42000  # c1,c,c1,o3e
dihedral_coeff	24 bb13    0.00000    1.53000    1.42000  # c1,c,c1,oc
dihedral_coeff	25 bb13    0.00000    1.53000    1.53000  # c1,c,c3h,c3h
dihedral_coeff	26 bb13    0.00000    1.53000    1.10100  # c1,c,c3h,hc
dihedral_coeff	27 bb13    0.00000    1.53000    1.42000  # c1,c,c3h,o3e
dihedral_coeff	28 bb13    0.00000    1.53000    1.53000  # c1,c1,c,c3h
dihedral_coeff	29 bb13    0.00000    1.53000    1.10100  # c1,c1,c,hc
dihedral_coeff	30 bb13    0.00000    1.53000    1.53000  # c1,c1,c1,c1
dihedral_coeff	31 bb13    0.00000    1.53000    1.53000  # c1,c1,c1,c3h
dihedral_coeff	32 bb13    0.00000    1.53000    1.10100  # c1,c1,c1,hc
dihedral_coeff	33 bb13    0.00000    1.53000    1.42000  # c1,c1,c1,o3e
dihedral_coeff	34 bb13    0.00000    1.53000    1.42000  # c1,c1,c1,oc
dihedral_coeff	35 bb13    0.00000    1.53000    1.42000  # c1,c1,c1,oh
dihedral_coeff	36 bb13    0.00000    1.53000    1.53000  # c1,c1,c3h,c3h
dihedral_coeff	37 bb13    0.00000    1.53000    1.10100  # c1,c1,c3h,hc
dihedral_coeff	38 bb13    0.00000    1.53000    1.42000  # c1,c1,c3h,o3e
dihedral_coeff	39 bb13    0.00000    1.53000    1.42000  # c1,c1,o3e,c1
dihedral_coeff	40 bb13    0.00000    1.53000    1.42000  # c1,c1,oc,c1
dihedral_coeff	41 bb13    0.00000    1.53000    0.96000  # c1,c1,oh,h
dihedral_coeff	42 bb13    0.00000    1.53000    1.10100  # c1,c3h,c3h,hc
dihedral_coeff	43 bb13    0.00000    1.53000    1.42000  # c1,c3h,c3h,o3e
dihedral_coeff	44 bb13    0.00000    1.53000    1.42000  # c1,c3h,o3e,c3h
dihedral_coeff	45 bb13    0.00000    1.42000    1.10100  # c1,o3e,c1,hc
dihedral_coeff	46 bb13    0.00000    1.42000    1.10100  # c1,oc,c1,hc
dihedral_coeff	47 bb13    0.00000    1.53000    1.10100  # c3h,c,c1,hc
dihedral_coeff	48 bb13    0.00000    1.53000    1.10100  # c3h,c1,c1,hc
dihedral_coeff	49 bb13    0.00000    1.53000    1.10100  # c3h,c3h,c,hc
dihedral_coeff	50 bb13    0.00000    1.53000    1.10100  # c3h,c3h,c1,hc
dihedral_coeff	51 bb13    0.00000    1.42000    1.10100  # c3h,o3e,c3h,hc
dihedral_coeff	52 bb13    0.00000    0.96000    1.10100  # h,oh,c1,hc
dihedral_coeff	53 bb13    0.00000    1.10100    1.10100  # hc,c,c,hc
dihedral_coeff	54 bb13    0.00000    1.10100    1.10100  # hc,c,c1,hc
dihedral_coeff	55 bb13    0.00000    1.10100    1.42000  # hc,c,c1,o3e
dihedral_coeff	56 bb13    0.00000    1.10100    1.42000  # hc,c,c1,oc
dihedral_coeff	57 bb13    0.00000    1.10100    1.10100  # hc,c,c3h,hc
dihedral_coeff	58 bb13    0.00000    1.10100    1.42000  # hc,c,c3h,o3e
dihedral_coeff	59 bb13    0.00000    1.10100    1.10100  # hc,c1,c1,hc
dihedral_coeff	60 bb13    0.00000    1.10100    1.42000  # hc,c1,c1,o3e
dihedral_coeff	61 bb13    0.00000    1.10100    1.42000  # hc,c1,c1,oc
dihedral_coeff	62 bb13    0.00000    1.10100    1.42000  # hc,c1,c1,oh
dihedral_coeff	63 bb13    0.00000    1.10100    1.10100  # hc,c1,c3h,hc
dihedral_coeff	64 bb13    0.00000    1.10100    1.42000  # hc,c1,c3h,o3e
dihedral_coeff	65 bb13    0.00000    1.10100    1.10100  # hc,c3h,c3h,hc
dihedral_coeff	66 bb13    0.00000    1.10100    1.42000  # hc,c3h,c3h,o3e
dihedral_coeff	67 bb13    0.00000    1.42000    1.42000  # oc,c1,c1,oc
dihedral_coeff	68 bb13    0.00000    1.42000    1.42000  # oc,c1,c1,oh

# Improper Coeffs

improper_coeff	 1    0.00000    0.00000  # c,c,c1,hc
improper_coeff	 2    0.00000    0.00000  # c,c,hc,c1
improper_coeff	 3    0.00000    0.00000  # c,c,hc,hc
improper_coeff	 4    0.00000    0.00000  # c,c1,c1,hc
improper_coeff	 5    0.00000    0.00000  # c,c1,hc,c3h
improper_coeff	 6    0.00000    0.00000  # c,c1,hc,hc
improper_coeff	 7    0.00000    0.00000  # c,c3h,hc,hc
improper_coeff	 8    0.00000    0.00000  # c1,c,c,c1
improper_coeff	 9    0.00000    0.00000  # c1,c,c,hc
improper_coeff	10    0.00000    0.00000  # c1,c,c1,c1
improper_coeff	11    0.00000    0.00000  # c1,c,c1,hc
improper_coeff	12    0.00000    0.00000  # c1,c,c1,oc
improper_coeff	13    0.00000    0.00000  # c1,c,hc,c1
improper_coeff	14    0.00000    0.00000  # c1,c,hc,oc
improper_coeff	15    0.00000    0.00000  # c1,c,o3e,c1
improper_coeff	16    0.00000    0.00000  # c1,c,o3e,hc
improper_coeff	17    0.00000    0.00000  # c1,c,oc,c1
improper_coeff	18    0.00000    0.00000  # c1,c,oc,hc
improper_coeff	19    0.00000    0.00000  # c1,c1,c1,c1
improper_coeff	20    0.00000    0.00000  # c1,c1,c1,c3h
improper_coeff	21    0.00000    0.00000  # c1,c1,c1,hc
improper_coeff	22    0.00000    0.00000  # c1,c1,c1,o3e
improper_coeff	23    0.00000    0.00000  # c1,c1,c1,oc
improper_coeff	24    0.00000    0.00000  # c1,c1,c1,oh
improper_coeff	25    0.00000    0.00000  # c1,c1,c3h,hc
improper_coeff	26    0.00000    0.00000  # c1,c1,hc,c3h
improper_coeff	27    0.00000    0.00000  # c1,c1,hc,o3e
improper_coeff	28    0.00000    0.00000  # c1,c1,hc,oc
improper_coeff	29    0.00000    0.00000  # c1,c1,hc,oh
improper_coeff	30    0.00000    0.00000  # c1,c1,o3e,hc
improper_coeff	31    0.00000    0.00000  # c1,c1,oc,hc
improper_coeff	32    0.00000    0.00000  # c3h,c,hc,c3h
improper_coeff	33    0.00000    0.00000  # c3h,c,o3e,c3h
improper_coeff	34    0.00000    0.00000  # c3h,c,o3e,hc
improper_coeff	35    0.00000    0.00000  # c3h,c1,c3h,hc
improper_coeff	36    0.00000    0.00000  # c3h,c1,c3h,o3e
improper_coeff	37    0.00000    0.00000  # c3h,c1,o3e,hc
improper_coeff	38    0.00000    0.00000  # c3h,c3h,o3e,hc

# AngleAngle Coeffs

improper_coeff	 1 aa    0.00000   -1.31990    0.00000  112.67000  110.77000  110.77000  # c,c,c1,hc
improper_coeff	 2 aa    0.00000   -1.31990    0.00000  110.77000  112.67000  110.77000  # c,c,hc,c1
improper_coeff	 3 aa    0.00000   -0.48250    0.00000  110.77000  110.77000  107.66000  # c,c,hc,hc
improper_coeff	 4 aa   -1.31990   -1.31990    0.11840  112.67000  110.77000  110.77000  # c,c1,c1,hc
improper_coeff	 5 aa    0.11840    0.00000   -1.31990  110.77000  112.67000  110.77000  # c,c1,hc,c3h
improper_coeff	 6 aa    0.27380   -0.48250    0.27380  110.77000  110.77000  107.66000  # c,c1,hc,hc
improper_coeff	 7 aa    0.00000   -0.48250    0.00000  110.77000  110.77000  107.66000  # c,c3h,hc,hc
improper_coeff	 8 aa    0.00000    0.00000   -0.17290  112.67000  112.67000  112.67000  # c1,c,c,c1
improper_coeff	 9 aa    0.00000    0.00000    0.11840  112.67000  110.77000  110.77000  # c1,c,c,hc
improper_coeff	10 aa    0.00000   -0.17290    0.00000  112.67000  112.67000  112.67000  # c1,c,c1,c1
improper_coeff	11 aa    0.00000   -1.31990    0.00000  112.67000  110.77000  110.77000  # c1,c,c1,hc
improper_coeff	12 aa    0.00000   -0.83300    0.00000  112.67000  111.27000  111.27000  # c1,c,c1,oc
improper_coeff	13 aa    0.00000   -1.31990    0.00000  110.77000  112.67000  110.77000  # c1,c,hc,c1
improper_coeff	14 aa    0.00000    2.59260    0.00000  110.77000  111.27000  108.72800  # c1,c,hc,oc
improper_coeff	15 aa    0.00000   -0.83300   -0.83300  111.27000  112.67000  111.27000  # c1,c,o3e,c1
improper_coeff	16 aa    0.00000    2.59260    3.91770  111.27000  110.77000  108.72800  # c1,c,o3e,hc
improper_coeff	17 aa    0.00000   -0.83300    0.00000  111.27000  112.67000  111.27000  # c1,c,oc,c1
improper_coeff	18 aa    0.00000    2.59260    0.00000  111.27000  110.77000  108.72800  # c1,c,oc,hc
improper_coeff	19 aa   -0.17290   -0.17290   -0.17290  112.67000  112.67000  112.67000  # c1,c1,c1,c1
improper_coeff	20 aa   -0.17290   -0.17290   -0.17290  112.67000  112.67000  112.67000  # c1,c1,c1,c3h
improper_coeff	21 aa   -1.31990   -1.31990    0.11840  112.67000  110.77000  110.77000  # c1,c1,c1,hc
improper_coeff	22 aa   -0.83300   -0.83300   -3.57440  112.67000  111.27000  111.27000  # c1,c1,c1,o3e
improper_coeff	23 aa   -0.83300   -0.83300   -3.57440  112.67000  111.27000  111.27000  # c1,c1,c1,oc
improper_coeff	24 aa    0.00000    0.00000   -3.57440  112.67000  111.27000  111.27000  # c1,c1,c1,oh
improper_coeff	25 aa   -1.31990    0.00000    0.11840  112.67000  110.77000  110.77000  # c1,c1,c3h,hc
improper_coeff	26 aa    0.11840    0.00000   -1.31990  110.77000  112.67000  110.77000  # c1,c1,hc,c3h
improper_coeff	27 aa    3.91770    2.59260    0.16890  110.77000  111.27000  108.72800  # c1,c1,hc,o3e
improper_coeff	28 aa    3.91770    2.59260    0.16890  110.77000  111.27000  108.72800  # c1,c1,hc,oc
improper_coeff	29 aa    0.00000    0.00000    0.16890  110.77000  111.27000  108.72800  # c1,c1,hc,oh
improper_coeff	30 aa    0.16890    2.59260    3.91770  111.27000  110.77000  108.72800  # c1,c1,o3e,hc
improper_coeff	31 aa    0.16890    2.59260    3.91770  111.27000  110.77000  108.72800  # c1,c1,oc,hc
improper_coeff	32 aa    0.11840    0.00000    0.00000  110.77000  112.67000  110.77000  # c3h,c,hc,c3h
improper_coeff	33 aa   -3.57440    0.00000   -0.83300  111.27000  112.67000  111.27000  # c3h,c,o3e,c3h
improper_coeff	34 aa    0.00000    2.59260    3.91770  111.27000  110.77000  108.72800  # c3h,c,o3e,hc
improper_coeff	35 aa   -1.31990    0.00000    0.11840  112.67000  110.77000  110.77000  # c3h,c1,c3h,hc
improper_coeff	36 aa   -0.83300    0.00000   -3.57440  112.67000  111.27000  111.27000  # c3h,c1,c3h,o3e
improper_coeff	37 aa    0.16890    2.59260    3.91770  111.27000  110.77000  108.72800  # c3h,c1,o3e,hc
improper_coeff	38 aa    0.00000    2.59260    0.00000  111.27000  110.77000  108.72800  # c3h,c3h,o3e,hc

# ------------------------------- OPT Section -------------------------------
minimize 1.0e-5 1.0e-7 100000 400000
Generated 28 of 28 mixed pair_coeff terms from sixthpower/geometric mixing rule
Neighbor list info ...
  update: every = 1 steps, delay = 0 steps, check = yes
  max neighbors/atom: 2000, page size: 100000
  master list distance cutoff = 12
  ghost atom cutoff = 12
  binsize = 6, bins = 16 16 16
  1 neighbor lists, perpetual/occasional/extra = 1 0 0
  (1) pair lj/class2/coul/cut, perpetual
      attributes: half, newton on
      pair build: half/bin/newton
      stencil: half/bin/3d
      bin: standard
Per MPI rank memory allocation (min/avg/max) = 28.57 | 28.7 | 29.35 Mbytes
   Step          Temp          E_pair         E_mol          TotEng         Press     
         0   0             -9.1733642      543.3191       534.14573      8.1673915    
        52   0             -15.043027      472.21025      457.16722      0.21636667   
Loop time of 0.0335052 on 6 procs for 52 steps with 74 atoms

98.8% CPU use with 6 MPI tasks x no OpenMP threads

Minimization stats:
  Stopping criterion = linesearch alpha is zero
  Energy initial, next-to-last, final = 
      534.145733305458   457.167220255666   457.167220255666
  Force two-norm initial, final = 304.36233 13.869782
  Force max component initial, final = 74.686836 4.2525152
  Final line search alpha, max atom move = 4.0447815e-11 1.7200495e-10
  Iterations, force evaluations = 52 157

MPI task timing breakdown:
Section |  min time  |  avg time  |  max time  |%varavg| %total
---------------------------------------------------------------
Pair    | 9.376e-06  | 0.00048751 | 0.0028737  |   0.0 |  1.46
Bond    | 2.2995e-05 | 0.0044973  | 0.026852   |  14.9 | 13.42
Neigh   | 0          | 0          | 0          |   0.0 |  0.00
Comm    | 2.2272e-05 | 0.010532   | 0.031361   |  14.0 | 31.43
Output  | 0          | 0          | 0          |   0.0 |  0.00
Modify  | 0          | 0          | 0          |   0.0 |  0.00
Other   |            | 0.01799    |            |       | 53.69

Nlocal:        12.3333 ave          74 max           0 min
Histogram: 5 0 0 0 0 0 0 0 0 1
Nghost:        51.3333 ave          98 max           0 min
Histogram: 2 0 1 0 0 0 0 0 0 3
Neighs:            164 ave         984 max           0 min
Histogram: 5 0 0 0 0 0 0 0 0 1

Total # of neighbors = 984
Ave neighs/atom = 13.297297
Ave special neighs/atom = 13.972973
Neighbor list builds = 0
Dangerous builds = 0
# ------------------------------- Run Section -------------------------------
#

thermo_style custom step temp pe evdwl ecoul ebond eangle edihed eimp density vol
thermo          100

fix Langevin  all langevin 300 300 100.0 482432
fix moveLimit all nve/limit 0.1
run 20000
Generated 28 of 28 mixed pair_coeff terms from sixthpower/geometric mixing rule
Per MPI rank memory allocation (min/avg/max) = 27.45 | 27.58 | 28.23 Mbytes
   Step          Temp          PotEng         E_vdwl         E_coul         E_bond        E_angle        E_dihed        E_impro        Density         Volume    
        52   0              457.16722      1.899182      -16.942209      7.4630059      594.20812     -124.25412     -5.2067668      0.00099999998  821358.63    
       100   121.04249      477.98378      1.1413388     -15.981181      16.971951      603.8195      -122.44931     -5.5185181      0.00099999998  821358.63    
       200   228.72625      509.70633      2.2692599     -16.898428      25.685384      618.24618     -114.79821     -4.79785        0.00099999998  821358.63    
       300   289.24441      515.07392      3.3517578     -18.146539      36.420968      613.82877     -116.33987     -4.0411603      0.00099999998  821358.63    
       400   267.29396      518.52219     -0.6102653     -15.168992      37.953824      615.3475      -115.27509     -3.7247894      0.00099999998  821358.63    
       500   327.97632      519.11978      0.98937887    -16.664615      33.792281      617.80524     -112.08091     -4.7215958      0.00099999998  821358.63    
       600   331.21842      520.48018      1.1414979     -16.888506      31.983234      626.28197     -116.98605     -5.0519627      0.00099999998  821358.63    
       700   379.68471      510.7669      -0.65017879    -17.600518      36.827948      618.38031     -120.97682     -5.2138338      0.00099999998  821358.63    
       800   304.98193      515.65129      1.3654945     -13.70306       33.505805      614.00356     -114.85499     -4.6655247      0.00099999998  821358.63    
       900   283.4382       521.93388      0.94020529    -14.298286      35.15436       628.00208     -120.72669     -7.1377967      0.00099999998  821358.63    
      1000   295.76218      517.05119     -0.60375833    -14.647501      40.914288      618.37695     -122.0295      -4.959289       0.00099999998  821358.63    
      1100   306.10641      511.98748      1.4797196     -14.670128      30.865784      628.87197     -129.00258     -5.5572811      0.00099999998  821358.63    
      1200   309.56772      514.95223      2.4147373     -15.31996       33.883341      617.28333     -119.35632     -3.9529027      0.00099999998  821358.63    
      1300   301.16623      517.34932      1.4366037     -16.661424      30.235191      628.20525     -120.5624      -5.3038951      0.00099999998  821358.63    
      1400   294.30441      527.98028      2.3234434     -13.21158       39.18249       619.08122     -114.40954     -4.9857606      0.00099999998  821358.63    
      1500   318.39576      509.253        0.29434082    -13.004489      26.959721      616.88675     -117.22459     -4.6587269      0.00099999998  821358.63    
      1600   334.84122      527.72115     -1.0817344     -13.019527      39.186808      639.89922     -132.72221     -4.5414104      0.00099999998  821358.63    
      1700   333.82256      527.12486      2.2662481     -13.975906      34.906422      634.52637     -124.54213     -6.0561444      0.00099999998  821358.63    
      1800   276.72967      523.07001      1.9529581     -15.593865      29.59195       622.78039     -111.79577     -3.8656552      0.00099999998  821358.63    
      1900   289.93541      517.87056      0.74696657    -15.056742      40.781168      614.68282     -118.39753     -4.8861273      0.00099999998  821358.63    
      2000   252.70978      515.83657     -0.7451545     -15.815929      30.195814      644.76433     -137.01322     -5.549271       0.00099999998  821358.63    
      2100   274.30733      522.00973      1.2469725     -16.194257      40.529683      623.33186     -122.36862     -4.5359027      0.00099999998  821358.63    
      2200   303.02148      517.92323      5.9753786     -15.432215      29.992676      621.42353     -119.82632     -4.2098198      0.00099999998  821358.63    
      2300   304.99233      528.70399      0.96495915    -15.602195      33.287882      623.64735     -110.13628     -3.4577298      0.00099999998  821358.63    
      2400   327.1309       518.5944       0.57323051    -15.377302      33.354404      621.62502     -117.54678     -4.0341682      0.00099999998  821358.63    
      2500   291.80521      537.27688      1.0710679     -17.196648      32.968027      655.12419     -129.86018     -4.8295785      0.00099999998  821358.63    
      2600   359.02653      523.70585     -0.6833365     -16.023079      31.884921      617.84111     -106.84248     -2.4712883      0.00099999998  821358.63    
      2700   314.50856      517.82284      2.1210796     -16.530204      35.468111      626.08427     -124.73984     -4.5805764      0.00099999998  821358.63    
      2800   312.15083      529.11631     -1.2939039     -17.039991      41.369013      625.31946     -114.03888     -5.1993901      0.00099999998  821358.63    
      2900   252.19908      510.06804      0.41451078    -14.875236      31.358498      613.74719     -116.43399     -4.142928       0.00099999998  821358.63    
      3000   271.00427      517.83183      4.2726928     -16.725041      37.46494       624.57637     -126.44047     -5.3166638      0.00099999998  821358.63    
      3100   310.01029      509.19348     -0.69637407    -16.976735      35.800564      619.83118     -123.65606     -5.1090886      0.00099999998  821358.63    
      3200   278.44929      529.00935      1.5192179     -16.891408      37.792232      632.71939     -120.72602     -5.4040644      0.00099999998  821358.63    
      3300   299.53533      525.58065      0.38362573    -16.95093       35.946806      620.39587     -110.95218     -3.2425502      0.00099999998  821358.63    
      3400   301.28456      522.19754      4.7360235     -15.747828      37.40658       620.97103     -117.14736     -8.0209114      0.00099999998  821358.63    
      3500   311.43271      519.66199      1.3781311     -16.807892      35.661179      621.9036      -118.5552      -3.9178285      0.00099999998  821358.63    
      3600   286.85145      527.84578      0.2493288     -14.76426       37.463366      617.51436     -108.82818     -3.788834       0.00099999998  821358.63    
      3700   319.01187      521.82094      3.8995281     -15.757812      33.002493      624.84462     -118.54898     -5.6189101      0.00099999998  821358.63    
      3800   224.38174      520.96525      0.36308157    -14.129275      33.327651      621.0518      -115.01756     -4.6304474      0.00099999998  821358.63    
      3900   284.36772      519.73752     -1.5073122     -14.676243      40.88237       621.6003      -121.8863      -4.6752961      0.00099999998  821358.63    
      4000   267.80043      517.78002     -0.01569079    -16.936793      27.165775      632.3073      -120.22045     -4.5201275      0.00099999998  821358.63    
      4100   319.61797      511.32413     -1.219625      -15.159756      33.771379      627.37292     -127.43942     -6.0013741      0.00099999998  821358.63    
      4200   302.27969      526.90124      3.1382156     -16.267897      33.878647      625.95091     -114.66424     -5.1343952      0.00099999998  821358.63    
      4300   264.08221      525.66928      2.2195736     -17.196907      37.654239      627.6051      -120.76654     -3.8461762      0.00099999998  821358.63    
      4400   267.87217      520.82997      1.141078      -15.669157      40.931565      613.45338     -114.82317     -4.2037232      0.00099999998  821358.63    
      4500   312.45282      518.53093     -1.4076672     -15.3659        29.193808      625.5635      -115.47615     -3.9766659      0.00099999998  821358.63    
      4600   365.35954      526.17717      1.2010061     -14.892729      48.436113      608.56667     -113.09779     -4.0361043      0.00099999998  821358.63    
      4700   364.284        517.94964      1.6598051     -17.220576      32.265147      621.58519     -114.67898     -5.6609421      0.00099999998  821358.63    
      4800   291.13212      526.85453      4.6320671     -15.535702      32.38453       630.81566     -120.72526     -4.7167569      0.00099999998  821358.63    
      4900   312.57592      507.77126      6.2845289     -17.703098      31.569743      613.70483     -120.83879     -5.2459468      0.00099999998  821358.63    
      5000   310.88687      517.21286      3.438279      -14.756217      32.1684        623.07285     -121.97771     -4.7327363      0.00099999998  821358.63    
      5100   345.90559      519.51861      3.3917393     -17.254744      36.226362      627.14095     -124.19054     -5.7951588      0.00099999998  821358.63    
      5200   310.82264      516.0946       2.672445      -16.785743      27.617021      619.79646     -112.24981     -4.9557646      0.00099999998  821358.63    
      5300   290.04698      512.35256      4.092081      -17.418423      33.175126      618.21985     -120.34503     -5.3710393      0.00099999998  821358.63    
      5400   294.6023       525.61583      2.5887852     -16.405607      38.372772      627.19031     -120.62158     -5.508858       0.00099999998  821358.63    
      5500   279.61188      521.15305      2.9688718     -15.645446      38.34781       612.81519     -112.66579     -4.6675864      0.00099999998  821358.63    
      5600   280.00167      514.57676      1.6887913     -15.615362      28.400435      621.76019     -116.30404     -5.3532503      0.00099999998  821358.63    
      5700   270.46215      516.39926      3.5088988     -16.16874       26.169475      627.57762     -118.6441      -6.0438935      0.00099999998  821358.63    
      5800   323.21383      513.57568      0.15422136    -15.270573      32.617021      616.2188      -116.32229     -3.8214945      0.00099999998  821358.63    
      5900   288.30463      517.51106      3.2917556     -16.25328       41.328176      608.12339     -114.1562      -4.8227793      0.00099999998  821358.63    
      6000   294.61933      515.24317      2.1867388     -14.237989      31.010222      612.43732     -109.99552     -6.1576023      0.00099999998  821358.63    
      6100   367.37148      520.41716      2.0249054     -16.112494      31.07431       624.76848     -116.10814     -5.2298975      0.00099999998  821358.63    
      6200   298.23885      519.58564      5.8384437     -15.282687      35.152782      612.26048     -113.6613      -4.7220878      0.00099999998  821358.63    
      6300   283.30262      514.50943      1.4084168     -14.778274      31.259181      616.96234     -115.09753     -5.2447018      0.00099999998  821358.63    
      6400   284.17737      504.08072      4.1507356     -16.61571       29.272501      605.23333     -113.30939     -4.6507493      0.00099999998  821358.63    
      6500   264.44506      513.17708      0.55732415    -14.919747      31.095937      599.55174     -98.15011      -4.9580654      0.00099999998  821358.63    
      6600   335.24589      503.54454      2.0302847     -17.113523      31.734201      599.6604      -107.9479      -4.8189279      0.00099999998  821358.63    
      6700   313.28781      510.17568      6.2234007     -16.74629       33.36755       584.79611     -92.736441     -4.7286514      0.00099999998  821358.63    
      6800   293.12501      511.77409      0.90192036    -15.762251      37.488394      608.89767     -115.63141     -4.1202431      0.00099999998  821358.63    
      6900   329.95434      511.16508      2.244866      -16.445167      40.653273      603.15377     -112.353       -6.0886573      0.00099999998  821358.63    
      7000   320.67699      501.39729      2.1892871     -16.502462      31.518119      592.76023     -103.07778     -5.4900994      0.00099999998  821358.63    
      7100   289.73241      500.44579      1.5275178     -16.875096      32.475233      602.52699     -113.83254     -5.3763141      0.00099999998  821358.63    
      7200   327.13325      506.07793      2.5087413     -15.83361       35.279693      611.5866      -121.43217     -6.0313326      0.00099999998  821358.63    
      7300   262.45166      506.64644      2.0809343     -17.302288      30.014395      593.03597     -99.268559     -1.9140153      0.00099999998  821358.63    
      7400   317.39847      503.20725      1.4478685     -17.549568      34.757436      602.84659     -112.96404     -5.3310326      0.00099999998  821358.63    
      7500   364.02553      501.68124      3.1775889     -15.33993       31.132142      589.68751     -102.13412     -4.841946       0.00099999998  821358.63    
      7600   266.04362      505.4338       1.2812464     -15.153132      36.902918      599.20319     -112.70746     -4.0929628      0.00099999998  821358.63    
      7700   253.94216      509.83075      2.9982019     -15.051705      30.742771      610.22191     -113.31643     -5.7640029      0.00099999998  821358.63    
      7800   258.25387      506.85042     -1.0854688     -14.76467       30.568637      610.19045     -113.14585     -4.9126699      0.00099999998  821358.63    
      7900   253.79472      508.22729      4.5644107     -13.813723      32.924492      604.23281     -114.35162     -5.3290766      0.00099999998  821358.63    
      8000   268.34937      509.64572      0.99126148    -16.193452      35.714251      600.26537     -106.34429     -4.7874294      0.00099999998  821358.63    
      8100   366.89849      510.56629     -2.5104136     -17.289119      39.580125      604.00548     -108.89829     -4.3214919      0.00099999998  821358.63    
      8200   304.12393      515.83664     -0.65506737    -15.842869      35.139891      607.217       -103.90062     -6.1217014      0.00099999998  821358.63    
      8300   337.07831      506.56162     -1.8944609     -15.877892      31.287982      604.20404     -107.57138     -3.586676       0.00099999998  821358.63    
      8400   294.51594      509.75426      4.3678566     -14.827939      36.757032      596.15445     -107.67802     -5.0191276      0.00099999998  821358.63    
      8500   313.56329      511.98109      2.8016855     -14.812781      39.534856      604.44856     -114.92927     -5.061966       0.00099999998  821358.63    
      8600   283.14738      502.6362      -2.5532582     -14.941166      32.235982      595.67632     -104.00073     -3.7809425      0.00099999998  821358.63    
      8700   255.97719      511.42145      2.3773252     -14.224022      26.865294      616.57091     -113.34412     -6.8239401      0.00099999998  821358.63    
      8800   308.41732      498.67218      0.82385642    -14.406859      27.08021       587.06806     -98.180961     -3.7121318      0.00099999998  821358.63    
      8900   287.67188      495.01597     -0.60934904    -15.583817      31.703084      593.0773      -109.57048     -4.0007734      0.00099999998  821358.63    
      9000   333.23413      504.56423     -0.022983375   -15.72338       30.932875      599.26863     -106.23748     -3.6534313      0.00099999998  821358.63    
      9100   294.65032      511.69261      1.2769446     -15.418927      38.291064      605.66663     -113.34005     -4.7830426      0.00099999998  821358.63    
      9200   304.73668      504.36535      1.0037514     -14.962257      33.691952      600.06824     -110.53777     -4.8985611      0.00099999998  821358.63    
      9300   278.31424      514.05989      2.4667203     -16.841179      34.696196      613.34759     -114.41321     -5.1962272      0.00099999998  821358.63    
      9400   292.2378       509.51825      0.73012304    -14.806633      41.795599      597.76158     -110.90485     -5.0575667      0.00099999998  821358.63    
      9500   312.89819      498.79463     -0.82906781    -15.721946      32.436559      597.67815     -109.21446     -5.5546124      0.00099999998  821358.63    
      9600   324.84123      509.16306      6.4863409     -15.299954      38.595497      598.81192     -114.25705     -5.1736939      0.00099999998  821358.63    
      9700   295.93768      511.34598      0.65349147    -16.605887      45.724658      593.4677      -106.35031     -5.5436749      0.00099999998  821358.63    
      9800   304.41999      503.12334      0.012031842   -16.186988      29.283958      601.77521     -106.08054     -5.6803237      0.00099999998  821358.63    
      9900   298.42123      504.36309      1.9352939     -15.524551      28.585088      596.23269     -102.15709     -4.7083374      0.00099999998  821358.63    
     10000   323.10054      504.25383      0.18941076    -16.686619      40.444123      597.93178     -112.95456     -4.6703117      0.00099999998  821358.63    
     10100   266.64703      508.5581       2.5353786     -15.008069      34.697952      597.14393     -105.42567     -5.3854225      0.00099999998  821358.63    
     10200   279.32049      504.23504      1.0561007     -17.047643      33.295092      604.97772     -111.82235     -6.2238882      0.00099999998  821358.63    
     10300   341.38217      514.65515      0.90611557    -17.481618      32.010934      624.15108     -119.97219     -4.9591774      0.00099999998  821358.63    
     10400   323.62421      505.74583      0.65482422    -16.074826      22.828055      601.55621     -97.616194     -5.6022392      0.00099999998  821358.63    
     10500   320.73948      512.4465       1.4955607     -16.646515      30.270757      607.6143      -106.85701     -3.4305903      0.00099999998  821358.63    
     10600   276.26548      504.03796     -0.86079697    -16.913399      43.603479      601.89341     -118.85966     -4.8250776      0.00099999998  821358.63    
     10700   288.27754      506.80374      2.5994364     -16.44805       29.864904      610.1444      -113.08932     -6.2676381      0.00099999998  821358.63    
     10800   287.9301       498.57416      2.7865674     -16.792362      34.04668       578.21985     -96.620622     -3.0659558      0.00099999998  821358.63    
     10900   296.62568      498.00433     -1.0898312     -16.085479      39.960799      586.04594     -105.55532     -5.2717842      0.00099999998  821358.63    
     11000   297.99051      504.54373     -1.1077852     -15.747479      33.412538      611.69457     -117.66148     -6.0466354      0.00099999998  821358.63    
     11100   266.27411      517.46422      5.7569066     -16.069258      34.990328      608.19085     -110.60669     -4.7979237      0.00099999998  821358.63    
     11200   366.03095      508.81299     -1.4350553     -15.539127      37.509871      607.79476     -113.88916     -5.6283013      0.00099999998  821358.63    
     11300   339.26687      502.11577      0.11043413    -15.113123      23.459258      607.43967     -109.04984     -4.7306239      0.00099999998  821358.63    
     11400   304.05451      516.56371      5.995011      -15.544554      36.875957      599.20802     -105.91055     -4.0601713      0.00099999998  821358.63    
     11500   300.89873      508.67595      2.0384625     -16.352003      36.311486      615.99759     -122.74222     -6.57737        0.00099999998  821358.63    
     11600   253.43217      511.50303      3.2494155     -15.954969      41.693869      601.86524     -114.15103     -5.1994992      0.00099999998  821358.63    
     11700   269.17129      504.99535      0.195373      -15.687035      31.297175      597.52453     -103.20789     -5.1268015      0.00099999998  821358.63    
     11800   363.5122       508.0402       1.4051796     -15.449306      40.816562      616.08792     -128.63818     -6.1819863      0.00099999998  821358.63    
     11900   331.69428      509.8639      -0.32750117    -16.842021      45.116585      603.1957      -115.78209     -5.4967693      0.00099999998  821358.63    
     12000   337.70948      508.07596      1.7527574     -15.635136      36.899446      591.98646     -102.44794     -4.4796206      0.00099999998  821358.63    
     12100   343.17387      510.60116      3.3409646     -16.29411       41.154887      606.68524     -118.194       -6.0918186      0.00099999998  821358.63    
     12200   276.68352      522.44452     -0.77346938    -15.085422      41.998361      605.77994     -106.46412     -3.0107779      0.00099999998  821358.63    
     12300   337.54551      516.63741      1.748584      -14.803521      37.092335      588.99675     -93.371354     -3.0253891      0.00099999998  821358.63    
     12400   301.76685      500.68538     -0.31682525    -15.215421      33.56616       594.5175      -107.08296     -4.7830678      0.00099999998  821358.63    
     12500   289.29987      507.99588      3.6171816     -15.910077      40.260639      600.23304     -116.24582     -3.9590914      0.00099999998  821358.63    
     12600   331.4587       518.1621       0.16623104    -15.975374      31.845255      607.94337     -101.69564     -4.1217506      0.00099999998  821358.63    
     12700   297.97124      506.62569      3.7783109     -15.59075       39.654517      599.41106     -115.26289     -5.364558       0.00099999998  821358.63    
     12800   288.34844      503.10347      1.9559216     -15.713778      34.323018      593.60458     -108.04157     -3.0247037      0.00099999998  821358.63    
     12900   294.77912      500.09472      5.301004      -16.411137      26.174627      587.19222     -97.614752     -4.5472407      0.00099999998  821358.63    
     13000   329.83177      505.46186      4.562295      -15.744951      33.74587       605.00636     -116.07368     -6.034035       0.00099999998  821358.63    
[...]
    215700   276.39906      373.05985     -5.7337432     -30.596508      33.787424      493.40506     -113.86391     -3.9384688      0.0057861697   141952.04      1            
    215800   291.99537      369.29752      3.3503566     -28.902292      23.883773      480.57154     -106.27988     -3.3259833      0.0058402754   140636.97      1            
    215900   296.88515      364.27118      0.61323764    -29.392357      25.033639      501.41657     -129.99729     -3.4026224      0.0059140535   138882.51      1            
    216000   284.57238      358.60104     -3.9473971     -28.142848      23.689464      484.68773     -114.91591     -2.7700085      0.0059949984   137007.31      1            
    216100   289.46255      358.54076     -4.0702601     -27.360498      25.095301      472.62997     -105.81078     -1.9429697      0.0060911188   134845.28      1            
    216200   351.38761      360.35867     -5.8557341     -28.89252       29.793654      489.32768     -120.99968     -3.0147309      0.0061898431   132694.58      1            
    216300   324.22697      367.87131     -3.2305463     -29.734701      23.408477      494.40825     -113.74651     -3.2336568      0.0063105769   130155.87      1            
    216400   299.01287      368.05618     -6.3121373     -29.403887      28.726478      482.67168     -106.47998     -1.1459749      0.0064159716   128017.81      1            
    216500   284.96359      365.48904     -6.2026848     -28.319936      27.393085      484.44168     -109.00529     -2.817808       0.0064959591   126441.47      1            
    216600   290.99856      361.13949     -2.3097084     -30.579817      26.606993      489.52356     -119.914       -2.1875394      0.0066146318   124172.99      1            
    216700   324.29005      367.13833     -6.7023513     -28.867249      33.723194      477.58666     -106.99946     -1.6024621      0.006720275    122220.98      1            
    216800   313.20783      379.34361     -3.1092663     -30.360379      27.486105      499.92134     -111.10871     -3.4854792      0.0069227781   118645.81      1            
    216900   283.76097      379.42255     -4.8813672     -26.671297      30.784542      504.30005     -121.74591     -2.3634671      0.007123424    115303.91      1            
    217000   293.95855      363.94748     -2.592929      -29.414957      26.882136      488.60913     -116.19791     -3.3379861      0.0073508027   111737.27      1            
    217100   261.56544      369.97734     -3.6392102     -26.933481      27.332989      487.83733     -112.26136     -2.3589272      0.0076098634   107933.42      1            
    217200   323.0433       366.62677     -6.2355003     -23.654132      25.602682      488.3694      -114.08246     -3.37323        0.007891507    104081.34      1            
    217300   342.92184      376.72413     -5.6471722     -25.28942       29.57701       499.39101     -118.29771     -3.0095842      0.0082100889   100042.6       1            
    217400   356.06417      373.50178     -3.4426336     -26.175055      32.502236      489.75487     -115.18267     -3.9549727      0.008510096    96515.787      1            
    217500   354.39749      366.91363     -3.5523265     -26.429242      33.279535      481.71073     -114.73847     -3.3565853      0.0088323729   92994.105      1            
    217600   282.42156      375.30235     -2.5494385     -28.226186      34.140073      503.29933     -127.74466     -3.6167719      0.0091638811   89629.994      1            
    217700   280.68653      366.45003     -2.8922375     -27.007018      34.790637      488.50288     -122.50772     -4.4365121      0.0094209803   87183.985      1            
    217800   271.30998      367.96798     -7.0336261     -25.771166      25.529526      494.42465     -116.63723     -2.5441625      0.0097719518   84052.667      1            
    217900   283.81133      374.0042      -4.0116164     -27.995241      29.058951      504.13369     -122.80932     -4.3722747      0.010044015    81775.926      1            
    218000   348.80914      369.68578     -1.901677      -29.416614      28.053999      503.87132     -128.14543     -2.7758151      0.010375831    79160.751      1            
    218100   323.87874      368.89759      2.2628968     -30.569773      29.996122      484.96737     -113.76725     -3.991782       0.010625519    77300.561      1            
    218200   289.80676      370.3851      -4.9026619     -28.261338      34.840628      489.6545      -118.59696     -2.3490677      0.010785888    76151.224      1            
    218300   301.63185      364.83713     -1.0678287     -27.294518      29.49219       497.16214     -128.77434     -4.6805106      0.010982801    74785.897      1            
    218400   275.30898      370.53371     -6.2021724     -27.145251      32.00939       487.84198     -112.77749     -3.1927425      0.011129688    73798.89       1            
    218500   313.57649      367.5563      -3.1770126     -30.14619       31.954982      491.3922      -118.70502     -3.7626596      0.011330316    72492.122      1            
    218600   333.09339      376.1404      -6.7427674     -29.107688      28.092729      504.6167      -116.94133     -3.7772452      0.011488932    71491.294      1            
    218700   334.98354      373.38615     -5.68346       -28.712567      31.195047      502.35224     -123.49624     -2.2688651      0.011634364    70597.635      1            
    218800   290.65709      366.39707     -4.9506029     -29.133991      32.044828      482.07267     -111.08352     -2.5523135      0.01171898     70087.895      1            
    218900   284.97539      366.63511     -5.5508384     -28.809525      25.246927      485.8414      -106.67187     -3.4209749      0.011823042    69471.006      1            
    219000   297.41826      367.15572     -6.1785649     -25.449021      31.098302      493.3907      -124.04104     -1.6646587      0.011901398    69013.625      1            
    219100   328.94579      365.31956     -5.1778416     -26.426027      21.014978      484.77341     -105.28499     -3.5799691      0.012004574    68420.469      1            
    219200   340.71542      368.57538     -2.9967092     -28.960859      33.373563      487.08799     -117.85289     -2.0757077      0.012087615    67950.426      1            
    219300   330.52805      370.47478     -2.5909069     -29.32245       29.690831      492.223       -114.93806     -4.5876367      0.012090809    67932.478      1            
    219400   282.50009      364.26506     -5.5055046     -30.537975      33.358531      497.90798     -128.43354     -2.5244212      0.012051147    68156.053      1            
    219500   288.40657      360.13672     -1.4928219     -25.81627       24.783287      477.54791     -112.08735     -2.7980331      0.012015462    68358.472      1            
    219600   289.28175      366.65518     -4.0560071     -26.981312      29.907464      489.44458     -117.91698     -3.7425608      0.011959945    68675.783      1            
    219700   263.19721      382.98862     -2.6916714     -27.564432      27.854793      510.36097     -120.45293     -4.5181115      0.011921448    68897.556      1            
    219800   343.40296      366.45621     -2.8043819     -28.585129      23.549256      488.36948     -111.27558     -2.7974323      0.01187902     69143.632      1            
    219900   287.76659      374.14264     -2.751467      -27.809757      34.143858      496.96161     -122.33462     -4.066979       0.011849505    69315.857      1            
    220000   314.63803      362.19827     -6.3095663     -29.658865      27.156372      485.44592     -110.68776     -3.7478314      0.011758013    69855.225      1            
    220100   293.32449      363.91479     -3.9329663     -29.487695      26.5848        486.09045     -112.44428     -2.8955239      0.011751516    69893.84       1            
    220200   294.891        361.23966     -6.6821164     -29.026171      27.307136      485.55593     -113.99745     -1.9176736      0.011626407    70645.954      1            
    220300   283.78374      365.13098     -5.8304821     -29.351714      23.393122      481.47417     -103.03354     -1.520582       0.011619916    70685.415      1            
    220400   311.30765      364.16275     -5.6472227     -29.393964      33.26704       479.55289     -111.7565      -1.8594924      0.011493091    71465.424      1            
    220500   303.09066      374.53383     -2.3953902     -29.833074      27.423007      493.71367     -112.43103     -1.9433519      0.011420972    71916.698      1            
    220600   315.38628      368.70583     -6.6065015     -27.887209      26.852178      491.71329     -113.13033     -2.2356038      0.011265374    72910.02       1            
    220700   276.42913      361.69196     -2.544845      -28.930115      25.103447      473.73565     -103.6         -2.072176       0.011158554    73607.977      1            
    220800   277.81359      359.84997     -5.3268152     -28.617121      30.51575       490.19646     -122.53741     -4.380891       0.010959149    74947.3        1            
    220900   299.31381      363.22639     -1.6282888     -28.121326      29.13692       478.31367     -110.77798     -3.6966031      0.010821523    75900.465      1            
    221000   295.25672      368.1463      -10.147732     -28.157462      28.262944      509.90206     -126.79587     -4.9176437      0.010577452    77651.841      1            
    221100   319.98406      365.3061      -1.1103254     -27.595677      27.213276      486.08473     -114.94188     -4.3440298      0.010356405    79309.243      1            
    221200   299.46353      368.90645     -4.3310046     -27.369997      33.043375      487.6187      -116.81304     -3.2415772      0.010208337    80459.587      1            
    221300   330.36736      357.48067     -4.9168738     -30.7504        26.060288      494.80072     -122.87937     -4.8337024      0.009946883    82574.471      1            
    221400   266.27246      360.27949     -2.1955648     -29.135304      27.990706      488.44242     -120.85869     -3.9640815      0.0097794045   83988.612      1            
    221500   307.85954      351.34854     -3.5274188     -28.150634      29.51053       478.51767     -121.03083     -3.9707746      0.0095508215   85998.739      1            
    221600   301.16943      367.83664     -4.2111911     -25.986714      24.030974      490.48286     -114.28149     -2.1977996      0.0092915145   88398.787      1            
    221700   332.82355      364.60509     -1.8341002     -28.824902      30.277159      478.16149     -111.16028     -2.0142716      0.0090586408   90671.286      1            
    221800   332.21983      361.1247      -1.9781101     -29.420145      36.208953      480.42342     -120.62407     -3.4853445      0.0088246332   93075.666      1            
    221900   275.36579      364.86447     -6.0081894     -29.50285       29.407705      485.58847     -112.72439     -1.8962718      0.0085532885   96028.4        1            
    222000   263.37239      362.11685     -4.5603994     -29.363259      30.58936       475.2764      -107.30076     -2.5244829      0.0083278578   98627.839      1            
    222100   268.77704      362.29026     -5.401524      -28.887587      30.756757      482.63811     -114.2755      -2.5399942      0.0080349632   102223.07      1            
    222200   310.06578      369.03461     -3.800021      -29.561646      32.635349      481.92948     -110.36031     -1.8082373      0.0077938409   105385.6       1            
    222300   313.58355      371.76445     -3.4700397     -28.261308      29.368729      493.44958     -116.85029     -2.472233       0.0075969767   108116.51      1            
    222400   301.82463      366.9523      -0.63514893    -30.340138      24.221134      491.02753     -114.26924     -3.0518297      0.0073640959   111535.57      1            
    222500   268.76717      363.83025     -2.5381211     -29.043938      26.606706      485.42785     -114.44183     -2.1804171      0.0071989467   114094.28      1            
    222600   285.15607      355.51502     -5.2203327     -29.826191      27.596161      486.06483     -119.53578     -3.563667       0.0069764284   117733.4       1            
    222700   300.97638      367.33648     -2.2583201     -28.525861      31.262463      497.14661     -126.54612     -3.7422886      0.0068055071   120690.29      1            
    222800   308.19754      377.17312     -3.9666018     -27.062413      32.240548      491.91022     -111.23736     -4.7112771      0.006657553    123372.45      1            
    222900   321.46248      372.33501     -7.952792      -27.661248      31.682606      497.9906      -118.95985     -2.7643106      0.0064889619   126577.81      1            
    223000   285.23944      366.42883     -0.40073188    -29.457431      27.320642      496.85705     -123.14903     -4.7416696      0.0063635536   129072.32      1            
    223100   256.59502      366.01549     -2.7744299     -29.581632      33.490792      489.4754      -120.8266      -3.7680353      0.0062217207   132014.7       1            
    223200   294.64403      362.32378     -3.7790602     -28.355325      29.783567      479.33055     -111.46396     -3.1919908      0.006083808    135007.32      1            
    223300   298.9248       368.00612     -3.6924379     -28.110477      35.18792       494.97714     -126.61561     -3.7404209      0.0059883074   137160.4       1            
    223400   290.2625       372.02392     -4.389467      -27.013504      28.977807      479.25183     -102.86189     -1.9408595      0.0058583521   140203.01      1            
    223500   312.44394      365.59871     -7.5441327     -27.94506       36.757002      479.97933     -113.18871     -2.4597137      0.0057968857   141689.63      1            
    223600   314.36366      362.8238      -4.7216995     -29.848706      24.55608       481.74728     -107.59429     -1.3148615      0.0057292207   143363.06      1            
    223700   285.3444       369.3498      -5.3187988     -28.135063      32.447734      496.8261      -123.2419      -3.2282693      0.0056952748   144217.55      1            
    223800   233.28918      381.7285      -4.8904477     -27.610232      36.120433      490.00614     -110.02679     -1.8706063      0.0056403057   145623.07      1            
    223900   266.93095      374.08223     -1.6102368     -30.310565      36.074448      488.90012     -116.27133     -2.700215       0.0056111502   146379.72      1            
    224000   292.12253      375.79213     -6.4857526     -28.962326      33.916613      491.12786     -111.50367     -2.3005863      0.0055219451   148744.44      1            
    224100   313.95304      377.05872     -4.6587933     -26.693706      40.410548      481.91676     -111.96279     -1.9532989      0.0054872052   149686.15      1            
    224200   312.98531      366.18576     -3.3168948     -29.079362      33.075618      490.10518     -120.71706     -3.8817101      0.0054362366   151089.56      1            
    224300   250.02339      366.58633     -5.5682549     -31.254619      31.474881      486.36783     -112.08748     -2.3460336      0.005397629    152170.26      1            
    224400   276.43969      364.02983     -1.834713      -29.062446      31.299212      491.04863     -123.62397     -3.7968859      0.0053955952   152227.62      1            
    224500   278.29561      374.05966     -1.314521      -29.782936      37.47482       493.24613     -120.83246     -4.7313764      0.0053506867   153505.27      1            
    224600   315.93154      372.16267     -1.6843513     -27.529325      31.276125      493.58435     -119.0174      -4.4667213      0.0053773891   152743.01      1            
    224700   307.4631       368.96504     -3.5205038     -29.728966      39.734343      483.88219     -117.23779     -4.164231       0.00532591     154219.39      1            
    224800   298.75259      369.1037      -2.8724359     -27.889017      27.984234      500.94818     -125.00655     -4.0607088      0.0053504894   153510.93      1            
    224900   290.68233      363.17144     -3.4489588     -28.865372      36.695622      477.18638     -115.12895     -3.2672748      0.0053573604   153314.05      1            
    225000   258.95222      361.59929     -5.4426331     -28.900208      32.278903      487.41972     -120.4663      -3.2901924      0.0053561178   153349.62      1            
    225100   266.93749      357.18082     -3.2644082     -27.115277      23.198806      483.06832     -115.44651     -3.2601049      0.0053812965   152632.1       1            
    225200   287.10993      364.34098     -0.32935026    -30.400775      25.466859      494.33863     -121.17801     -3.5563719      0.0053976989   152168.29      1            
    225300   287.77899      374.64413     -8.0025995     -28.575551      40.208393      484.23538     -109.95805     -3.263442       0.0054028494   152023.23      1            
    225400   301.47976      371.02149     -3.8823051     -29.11996       22.367065      499.63414     -115.6279      -2.3495536      0.0054558702   150545.85      1            
    225500   298.29486      364.64833     -2.8737382     -29.256935      31.356555      489.86624     -121.16242     -3.2813643      0.0054768793   149968.36      1            
    225600   262.01376      362.71455     -6.6780399     -28.489719      25.710978      493.44528     -117.86434     -3.4096123      0.0054845923   149757.46      1            
    225700   250.96566      363.68459     -3.3571683     -28.238784      30.575214      476.98583     -110.38452     -1.8959723      0.0055036583   149238.66      1            
    225800   287.27895      374.93694     -6.4400789     -27.481384      28.990893      499.52482     -116.52199     -3.135309       0.0055124276   149001.25      1            
    225900   300.83717      377.22176     -4.6224725     -27.821115      44.578794      486.78599     -118.5673      -3.132131       0.0055620897   147670.87      1            
    226000   300.77627      371.20154     -5.7506976     -28.195827      36.438005      490.07356     -117.58623     -3.7772711      0.0056135853   146316.22      1            
    226100   280.31382      365.15756     -3.7852307     -28.907242      30.899729      474.98893     -105.44187     -2.5967454      0.005663114    145036.57      1            
    226200   302.29337      356.9523      -6.037927      -27.745976      27.918771      489.29253     -123.97288     -2.5022169      0.0057569272   142673.09      1            
    226300   328.53786      359.50519     -4.5542057     -29.60008       27.999049      478.15377     -109.81965     -2.6736866      0.0058603717   140154.7       1            
    226400   330.37641      375.1311      -3.6130896     -30.250847      28.89128       510.93961     -126.25981     -4.5760448      0.0059429945   138206.19      1            
    226500   339.93984      366.04443     -3.0892228     -28.617122      35.657682      473.06746     -109.23992     -1.7344487      0.006072293    135263.34      1            
    226600   273.65706      370.63564     -2.6386028     -28.626752      32.835037      495.73231     -124.17965     -2.4866986      0.0061980951   132517.91      1            
    226700   290.47777      362.37121     -5.4212213     -29.561091      26.946784      494.52389     -120.07173     -4.0454184      0.0063606461   129131.32      1            
    226800   290.82846      368.95529     -4.1381192     -25.688886      33.250175      474.70752     -107.20293     -1.9724762      0.0065122998   126124.2       1            
    226900   297.31571      371.67856     -3.1894827     -29.200396      35.726356      490.38949     -117.889