LAMMPS (22 Dec 2022)
WARNING: Using I/O redirection is unreliable with parallel runs. Better to use the -in switch to read input files. (../lammps.cpp:531)
Reading data file ...
  orthogonal box = (0 0 0) to (39.086147 39.086147 39.086147)
  1 by 2 by 3 MPI processor grid
  reading atoms ...
  5005 atoms
  scanning bonds ...
  5 = max bonds/atom
  scanning angles ...
  18 = max angles/atom
  scanning dihedrals ...
  48 = max dihedrals/atom
  scanning impropers ...
  16 = max impropers/atom
  reading bonds ...
  5111 bonds
  reading angles ...
  9870 angles
  reading dihedrals ...
  12795 dihedrals
  reading impropers ...
  6204 impropers
Finding 1-2 1-3 1-4 neighbors ...
  special bond factors lj:    0        0        0       
  special bond factors coul:  0        0        0       
     4 = max # of 1-2 neighbors
    12 = max # of 1-3 neighbors
    16 = max # of 1-4 neighbors
    32 = max # of special neighbors
  special bonds CPU = 0.001 seconds
  read_data CPU = 0.077 seconds
Generated 28 of 28 mixed pair_coeff terms from sixthpower/geometric mixing rule
Neighbor list info ...
  update: every = 1 steps, delay = 0 steps, check = yes
  max neighbors/atom: 2000, page size: 100000
  master list distance cutoff = 12
  ghost atom cutoff = 12
  binsize = 6, bins = 7 7 7
  1 neighbor lists, perpetual/occasional/extra = 1 0 0
  (1) pair lj/class2/coul/cut, perpetual
      attributes: half, newton on
      pair build: half/bin/newton
      stencil: half/bin/3d
      bin: standard
Setting up cg style minimization ...
  Unit style    : real
  Current step  : 0
Per MPI rank memory allocation (min/avg/max) = 35.33 | 35.73 | 36.11 Mbytes
   Step          Temp          E_pair         E_mol          TotEng         Press     
         0   0             -48.812824      27706.465      27657.652      15241.443    
        36   0             -714.8382       23911.844      23197.006      18815.804    
Loop time of 1.43752 on 6 procs for 36 steps with 5005 atoms

99.5% CPU use with 6 MPI tasks x no OpenMP threads

Minimization stats:
  Stopping criterion = linesearch alpha is zero
  Energy initial, next-to-last, final = 
      27657.6519777826   23197.0061024052   23197.0061024052
  Force two-norm initial, final = 3741.1892 949.88581
  Force max component initial, final = 1417.284 536.44873
  Final line search alpha, max atom move = 9.8882015e-15 5.3045131e-12
  Iterations, force evaluations = 36 153

MPI task timing breakdown:
Section |  min time  |  avg time  |  max time  |%varavg| %total
---------------------------------------------------------------
Pair    | 0.42502    | 0.61262    | 0.90335    |  21.3 | 42.62
Bond    | 0.30733    | 0.38421    | 0.46338    |   9.7 | 26.73
Neigh   | 0          | 0          | 0          |   0.0 |  0.00
Comm    | 0.06618    | 0.42819    | 0.69268    |  33.9 | 29.79
Output  | 0          | 0          | 0          |   0.0 |  0.00
Modify  | 0          | 0          | 0          |   0.0 |  0.00
Other   |            | 0.0125     |            |       |  0.87

Nlocal:        834.167 ave        1066 max         662 min
Histogram: 1 1 1 0 0 1 1 0 0 1
Nghost:        7828.17 ave        8251 max        7368 min
Histogram: 1 0 2 0 0 0 0 1 1 1
Neighs:         259561 ave      385339 max      179252 min
Histogram: 2 1 0 0 0 2 0 0 0 1

Total # of neighbors = 1557364
Ave neighs/atom = 311.16164
Ave special neighs/atom = 10.167433
Neighbor list builds = 0
Dangerous builds = 0
Read molecule template pre:
  1 molecules
  0 fragments
  30 atoms with max type 7
  29 bonds with max type 11
  52 angles with max type 25
  54 dihedrals with max type 32
  32 impropers with max type 21
Read molecule template post:
  1 molecules
  0 fragments
  30 atoms with max type 7
  29 bonds with max type 9
  52 angles with max type 24
  57 dihedrals with max type 35
  32 impropers with max type 22
dynamic group bond_react_MASTER_group defined
dynamic group statted_grp_REACT defined

CITE-CITE-CITE-CITE-CITE-CITE-CITE-CITE-CITE-CITE-CITE-CITE-CITE

Your simulation uses code contributions which should be cited:
- fix bond/react: reacter.org doi:10.1016/j.polymer.2017.09.038, doi:10.1021/acs.macromol.0c02012
The log file lists these citations in BibTeX format.

CITE-CITE-CITE-CITE-CITE-CITE-CITE-CITE-CITE-CITE-CITE-CITE-CITE

Generated 28 of 28 mixed pair_coeff terms from sixthpower/geometric mixing rule
Neighbor list info ...
  update: every = 1 steps, delay = 0 steps, check = yes
  max neighbors/atom: 2000, page size: 100000
  master list distance cutoff = 12
  ghost atom cutoff = 12
  binsize = 6, bins = 7 7 7
  2 neighbor lists, perpetual/occasional/extra = 1 1 0
  (1) pair lj/class2/coul/cut, perpetual
      attributes: half, newton on
      pair build: half/bin/newton
      stencil: half/bin/3d
      bin: standard
  (2) fix bond/react, occasional, copy from (1)
      attributes: half, newton on
      pair build: copy
      stencil: none
      bin: none
Setting up Verlet run ...
  Unit style    : real
  Current step  : 36
  Time step     : 1
Per MPI rank memory allocation (min/avg/max) = 41.22 | 41.51 | 41.84 Mbytes
   Step          Temp          PotEng         E_vdwl         E_coul         E_bond        E_angle        E_dihed        E_impro        Density         Volume       f_fxrct[1]       S/CPU     
        36   0              23197.006      402.84957     -1117.6878      564.78406      27761.327     -4298.5513     -115.71592      0.84999998     59712.958      0              0            
       100   159.28823      21093.628     -898.86323     -1205.7676      508.99245      27090.251     -4254.4505     -146.53309      0.82679982     61388.516      0              124.69114    
       200   328.31001      262174.81      2908.2121     -1547.3587      238046.72      26895.617     -3987.4081     -140.97119      0.78848352     64371.686      2              123.96751    
       300   357.18799      21077.756     -1553.8237     -1185.205       988.17989      26983.337     -4000.2426     -154.48971      0.84110494     60344.449      2              118.49287    
       400   324.49343      52634.398      775.28899     -1303.8222      30281.542      27061.716     -4001.8053     -178.52134      0.82948293     61189.943      3              118.93731    
       500   308.83478      74587.255      681.08414     -1489.7749      52991.682      26709.553     -4144.1336     -161.15653      0.83000321     61151.587      4              129.36237    
       600   267.89029      98965.484      2985.9111     -1568.0103      75253.835      26503.834     -4044.093      -165.99364      0.84794626     59857.583      6              87.05155     
       700   287.91834      46165.328      700.31713     -1252.1677      24714.829      26380.64      -4214.3279     -163.96248      0.87206788     58201.907      7              86.671246    
       800   303.1085       53148.857      645.75021     -1273.895       31854.635      26154.609     -4064.6895     -167.55226      0.87325049     58123.086      8              91.817343    
       900   303.18677      19944.679     -1755.8113     -1347.7471      1029.5121      26226.914     -4047.6369     -160.55168      0.87975775     57693.17       8              87.117208    
      1000   306.80577      19755.658     -1711.5748     -1417.5047      986.82199      26102.695     -4049.3517     -155.42827      0.8689343      58411.797      8              86.630734    
      1100   303.53127      49871.98       520.71213     -1371.7124      28878.258      26010.704     -4003.2158     -162.76695      0.85651966     59258.434      9              131.1718     
      1200   286.62801      86569.9        464.75642     -1481.2681      65757.991      26027.671     -4041.6326     -157.61682      0.86276791     58829.279      10             134.54654    
      1300   306.5857       19395.902     -1749.475      -1640.1217      1030.5406      26180.529     -4256.6723     -168.89851      0.88936978     57069.64       10             130.14938    
      1400   302.4378       68096.989      473.32066     -1593.504       47497.8        25929.861     -4067.7117     -142.77713      0.88139898     57585.742      11             114.76527    
      1500   298.68189      62447.386      326.43683     -1536.2754      41987.312      26017.609     -4187.3529     -160.34366      0.89879832     56470.971      12             70.044313    
      1600   300.45299      18841.702     -1854.4474     -1840.7398      1074.4783      25780.943     -4147.3609     -171.17073      0.91343864     55565.871      12             86.684842    
      1700   293.97226      372311.33      2750.7011     -1906.993       350269.15      25793.335     -4444.367      -150.49583      0.90596098     56024.503      14             49.415199    
      1800   307.08227      128573.02      2404.3925     -1692.5382      106201.79      26203.535     -4399.0178     -145.14276      0.97989904     51797.187      16             63.263685    
      1900   305.50614      18865.82      -1911.954      -1593.6653      1127.5061      25698.758     -4295.6047     -159.22057      1.0065375      50426.353      16             54.144363    
      2000   299.63972      120471.2       4668.5423     -1449.4822      96238.924      25370.237     -4196.6489     -160.37504      0.99348321     51088.95       19             81.683416    
      2100   292.71879      87596.362     -42.001122     -1654.759       68565.837      25120.207     -4247.1282     -145.7938       1.018985       49810.366      20             117.46605    
      2200   303.25827      185241.65      3142.3258     -1283.3321      162714.69      24970.365     -4142.7591     -159.64041      1.0379362      48900.9        22             118.08069    
      2300   304.76116      80877.56      -249.77977     -1434.0439      62041.465      24925.861     -4241.9875     -163.95596      1.0779845      47084.176      23             118.18322    
      2400   300.43268      88218.247      141.26728     -1377.5853      69148.822      24594.542     -4123.5922     -165.20778      1.089078       46604.573      24             116.36086    
      2500   292.31498      59194.322      278.92637     -1392.9418      40004.559      24780.531     -4320.9344     -155.8185       1.1030937      46012.424      25             110.44564    
      2600   292.26482      76510.686      707.28173     -1636.4547      57279.395      24476.103     -4166.3801     -149.25885      1.0990219      46182.894      26             37.498626    
      2700   304.93654      17537.889     -2150.9345     -1466.3229      1163.3969      24266.783     -4122.541      -152.49265      1.1078286      45815.763      26             73.716792    
      2800   304.04313      123244.92      2131.2957     -1543.8512      102790.69      24252.024     -4226.427      -158.80811      1.0837459      46833.871      28             79.493748    
      2900   308.27471      17522.587     -2168.9041     -1541.3886      1259.5727      24324.697     -4187.2473     -164.1427       1.1094106      45750.433      28             80.816532    
      3000   302.72796      167139.33     -31.885644     -1383.7271      148941.68      23999.532     -4215.208      -171.06637      1.0897417      46576.185      29             73.504637    
      3100   298.55624      17287.29      -2111.7033     -1564.2845      1273.2786      24026.193     -4182.5826     -153.61119      1.1307335      44887.691      29             121.72667    
      3200   301.33444      279510.91     -22.470882     -1747.7188      261754.81      23874.299     -4189.0549     -158.96383      1.1085861      45784.458      30             121.16844    
      3300   308.81977      97893.692      261.32612     -1370.7352      79342.056      24035.447     -4214.4916     -159.90949      1.1712263      43335.789      31             115.2328     
      3400   308.43989      141791.68      2689.5763     -1301.5813      121013.31      23865.507     -4306.6419     -168.4931       1.1804033      42998.876      33             113.30684    
      3500   301.55585      17083.01      -2071.71       -1427.1962      1260.17        23629.506     -4150.0921     -157.66796      1.200963       42262.763      33             118.30398    
      3600   289.77271      53268.488      315.03228     -1563.3807      35360.249      23473.844     -4151.8247     -165.43147      1.1696758      43393.233      34             78.334949    
      3700   291.70229      16520.924     -2212.6793     -1617.6374      1279.5158      23475.102     -4240.3382     -163.03941      1.1567432      43878.378      34             82.257304    
      3800   297.18296      57823.981      1131.4788     -1595.889       39405.592      23370.347     -4325.6079     -161.94025      1.130189       44909.315      35             81.494506    
      3900   297.94996      16338.732     -2292.0894     -1683.0951      1383.4123      23293.584     -4203.1877     -159.89226      1.1272553      45026.19       35             84.391832    
      4000   300.56889      237135.4       2108.9793     -1725.2192      217970.04      23272.605     -4334.5953     -156.40818      1.1039886      45975.125      37             81.838672    
      4100   303.50577      140378.66      3120.5964     -1480.7546      119920.04      23399.58      -4432.7758     -148.02589      1.1556129      43921.292      39             126.15804    
      4200   304.5367       15998.1       -2215.3351     -1628.1153      1367.2129      22987.599     -4358.0333     -155.22827      1.179605       43027.975      39             121.37389    
      4300   291.85345      118718.85      2502.4048     -1646.016       99694.477      22642.747     -4322.3029     -152.46471      1.1552562      43934.853      41             109.45521    
      4400   288.57293      278094.44     -20.178935     -1654.9839      261635.42      22548.645     -4262.315      -152.14394      1.176996       43123.352      42             62.165664    
      4500   306.85757      15958.58      -1935.9913     -1815.3197      1393.6988      22742.087     -4283.5122     -142.38198      1.235879       41068.756      42             114.10662    
      4600   300.56124      171360.46      1972.9217     -1602.5854      152983.13      22412.096     -4241.5347     -163.57351      1.2044116      42141.752      44             68.191151    
      4700   306.36501      36024.121      1206.796      -1726.987       18694.718      22305.617     -4316.5367     -139.48622      1.2360387      41063.45       45             66.65795     
      4800   293.51796      15261.685     -2202.7186     -1662.4797      1375.124       22334.48      -4439.7384     -142.98184      1.2098439      41952.53       45             56.110584    
      4900   290.67273      14898.566     -2290.8966     -1829.5653      1344.7051      22160.704     -4354.6186     -131.76262      1.1799258      43016.274      45             54.728269    
      5000   302.37557      14639.964     -2400.5017     -2009.0971      1353.1142      22122.373     -4286.8203     -139.10374      1.154565       43961.156      45             55.29833     
      5100   298.00206      14799.36      -2402.5775     -1932.4208      1400.3008      22213.864     -4325.558      -154.24847      1.132344       44823.848      45             108.48245    
      5200   297.0576       14887.783     -2417.7422     -1859.911       1403.7555      22193.118     -4275.4206     -156.01665      1.1129611      45604.483      45             79.322294    
      5300   303.42557      300014.59     -33.564871     -1805.611       284407.23      21885.524     -4305.5756     -133.41499      1.0954         46335.596      46             120.5274     
      5400   310.38689      56039.392      87.449063     -1642.3637      39852.116      22272.932     -4393.9512     -136.79025      1.1618311      43686.226      47             122.50969    
      5500   308.28992      14921.538     -2380.9904     -1649.1083      1417.2651      22097.375     -4399.7336     -163.26933      1.1578248      43837.388      47             117.43228    
      5600   288.55383      89316.509     -887.65021     -1708.0192      74445.9        21921.779     -4305.5782     -149.92225      1.1378848      44605.58       48             70.110178    
      5700   297.32054      62654.596     -94.497014     -1846.4984      47206.399      21811.478     -4284.6792     -137.6065       1.1557069      43917.72       49             76.13605     
      5800   302.48278      45756.421     -998.63995     -2116.9442      31736.963      21704.283     -4419.3951     -149.8465       1.1588387      43799.033      50             77.718615    
      5900   296.50413      234280.55      1837.3328     -1857.3678      217380.97      21595.778     -4542.546      -133.61806      1.1530078      44020.529      52             80.883818    
      6000   304.64838      97111.358      607.79147     -1593.3787      81163.217      21514.701     -4460.0263     -120.94621      1.2024299      42211.203      53             75.382109    
      6100   302.04845      14371.721     -2214.9179     -1758.2155      1465.702       21390.09      -4361.8671     -149.07111      1.2119049      41881.186      53             116.93234    
      6200   297.7671       14044.24      -2386.7453     -1843.5578      1506.7996      21232.271     -4324.7566     -139.77077      1.1855614      42811.796      53             114.2695     
      6300   294.78902      43259.474      68.394035     -1798.2155      28197.247      21308.319     -4371.5741     -144.69637      1.1615178      43698.009      54             113.9235     
      6400   299.00383      13817.475     -2432.1965     -1834.4484      1462.2682      21179.019     -4414.4671     -142.69966      1.1525942      44036.327      54             119.21989    
      6500   303.81047      48447.873     -285.51177     -1756.9039      33847.956      21219.898     -4437.2891     -140.27569      1.1306447      44891.213      55             114.92932    
      6600   297.84088      62644.9        2987.7423     -1770.0384      44731.579      21242.736     -4418.6778     -128.4409       1.1281219      44991.603      57             78.22889     
      6700   304.34238      13589.197     -2426.8724     -1804.4332      1441.43        20974.225     -4471.2983     -123.85417      1.1319525      44839.351      57             77.923176    
      6800   293.3333       81147.178      3103.8248     -1916.3352      63665.913      20814.993     -4374.6563     -146.56083      1.1131865      45595.246      59             72.085143    
      6900   295.88808      109166.34      230.20006     -1505.6339      94508.496      20565.991     -4497.3666     -135.34952      1.1295918      44933.058      60             76.069427    
      7000   303.89247      13549.303     -2413.102      -1544.4904      1489.0663      20663.318     -4515.0306     -130.45838      1.156531       43886.428      60             73.302133    
      7100   297.7504       48009.563     -171.90852     -1758.7825      33991.116      20498.071     -4410.3931     -138.53974      1.1392892      44550.596      61             113.93525    
      7200   295.32806      13146.861     -2487.6525     -1726.4441      1482.5087      20536.153     -4532.5326     -125.17156      1.1370325      44639.018      61             120.05329    
      7300   294.57632      83740.875      2383.3973     -1898.0667      67373.775      20384.382     -4370.7099     -131.90333      1.119011       45357.924      63             107.47917    
      7400   306.52942      13030.146     -2477.3092     -1694.2782      1521.4312      20268.941     -4458.0158     -130.62344      1.135898       44683.602      63             109.07517    
      7500   302.04659      13180.401     -2485.9444     -1461.0751      1494.9965      20178.468     -4411.0644     -134.97993      1.1207789      45286.375      63             112.41666    
      7600   301.8695       12910.848     -2524.8057     -1638.9845      1515.0824      20109.561     -4417.3653     -132.64001      1.1053692      45917.701      63             75.307807    
      7700   299.22039      72772.921     -572.79325     -1734.0806      59583.379      20055.673     -4438.749      -120.50834      1.091498       46501.244      64             75.466493    
      7800   300.86278      78811.157     -151.81647     -1716.2447      65232.9        20102.999     -4528.6739     -128.0076       1.112018       45643.158      65             78.878839    
      7900   306.14894      172768.64     -223.40804     -1322.1804      159042.05      20006.002     -4605.4314     -128.38842      1.1316634      44850.806      66             74.394072    
      8000   303.92831      309636.26     -324.32077     -1605.5236      296178.49      20225.521     -4713.1517     -124.75739      1.1750656      43194.195      67             71.808972    
      8100   327.65515      13278.257     -2157.0387     -1605.1248      1551.0372      20159.284     -4535.626      -134.27433      1.2383647      40986.32       67             111.71085    
      8200   312.32104      53596.925      336.58465     -1695.8239      39659.67       19910.74      -4477.5234     -136.72228      1.2116098      41891.386      68             103.54419    
      8300   304.5786       12288.827     -2338.9953     -1958.1724      1536.8828      19673.254     -4501.0808     -123.06132      1.2017353      42235.6        68             98.306489    
      8400   298.19915      103375.78     -651.60117     -1731.0557      90844.873      19588.985     -4550.5374     -124.88546      1.1750853      43193.471      69             101.3366     
      8500   292.33671      48019.98      -1655.5941     -1728.341       36483.814      19658.415     -4621.2243     -117.08903      1.1965807      42417.542      70             96.082745    
      8600   293.93586      52968.744     -256.3076      -1803.3194      40219.663      19484.325     -4551.7244     -123.89298      1.1883579      42711.049      71             67.891258    
      8700   300.6007       43506.274     -797.67658     -1833.492       31508.76       19260.415     -4507.0653     -124.66836      1.1836996      42879.133      72             69.654114    
      8800   307.02621      11712.631     -2484.3145     -1875.4331      1506.569       19275.083     -4582.9002     -126.37358      1.1738458      43239.079      72             77.329024    
      8900   300.62154      66777.149     -601.91222     -1600.4661      54526.194      19166.215     -4587.169      -125.7117       1.1506156      44112.052      73             76.550151    
      9000   304.01732      11737.775     -2505.4496     -1693.2589      1514.7563      19098.195     -4556.2458     -120.22247      1.1602095      43747.283      73             80.4252      
      9100   297.01901      11641.163     -2491.7709     -1787.6008      1537.8781      19105.835     -4596.5156     -126.66269      1.1400742      44519.923      73             122.92475    
      9200   294.31033      71715.161     -693.42513     -1853.5629      59995.423      18977.611     -4587.7774     -123.107        1.1220645      45234.487      74             124.20718    
      9300   303.46622      11528.548     -2497.4399     -1846.6132      1562.201       18982.055     -4549.2182     -122.43705      1.1386225      44576.683      74             130.3989     
      9400   298.47727      386676.84     -320.40119     -2112.3731      374937.66      18795.051     -4483.7505     -139.34793      1.1231619      45190.293      75             124.60347    
      9500   319.87161      12174.39      -2254.3072     -1648.0259      1605.7347      19143.798     -4553.311      -119.49898      1.2019376      42228.493      75             123.35744    
      9600   312.13214      100906.77     -494.2597      -1606.5845      88596.098      18987.136     -4439.9214     -135.69701      1.1830881      42901.298      76             76.403031    
      9700   308.27066      11765.184     -2320.9265     -1620.4552      1572.537       18862.257     -4608.0404     -120.18843      1.202079       42223.524      76             72.680688    
      9800   301.94038      11254.76      -2499.4368     -1936.9655      1563.837       18825.874     -4567.8879     -130.66149      1.1801282      43008.898      76             76.511852    
      9900   294.99306      11145.454     -2497.1309     -1893.5631      1494.2102      18751.339     -4587.5901     -121.81068      1.160038       43753.751      76             75.466805    
     10000   295.7642       11216.005     -2520.623      -1751.072       1522.731       18585.414     -4498.7008     -121.74352      1.141575       44461.39       76             78.176944    
     10100   300.26878      11145.487     -2575.7446     -1851.9946      1539.0707      18825.819     -4671.3307     -120.33302      1.1258633      45081.862      76             116.80135    
     10200   300.73777      92807.997      91.87671      -1795.7481      80551.306      18685.141     -4598.6234     -125.95516      1.1120955      45639.979      77             105.91482    
     10300   301.41184      11023.651     -2502.0795     -2076.2842      1603.8189      18726.827     -4613.6321     -114.99885      1.138725       44572.671      77             111.30011    
     10400   297.72336      10993.972     -2499.0999     -1986.0143      1618.8745      18485.771     -4498.7869     -126.77316      1.1249899      45116.861      77             116.05765    
     10500   297.1607       11168.764     -2602.9942     -1720.9016      1575.0433      18548.01      -4512.641      -117.75225      1.1114759      45665.422      77             104.38872    
     10600   294.95031      10952.029     -2547.116      -1911.4883      1524.0211      18574.795     -4567.4887     -120.69409      1.099453       46164.789      77             69.018351    
     10700   300.45564      11106.858     -2525.9371     -1738.5463      1624.6654      18500.731     -4634.1654     -119.88987      1.0888957      46612.373      77             71.961822    
     10800   298.58523      11211.188     -2555.9145     -1737.1348      1638.7204      18608.142     -4627.232      -115.39327      1.0789968      47040.003      77             86.626879    
     10900   300.54443      11075.904     -2505.229      -1871.7608      1621.8658      18510.939     -4569.5059     -110.40519      1.069896       47440.14       77             88.214514    
     11000   298.68875      11215.463     -2536.0456     -1686.4124      1610.769       18487.092     -4534.3441     -125.59601      1.0618098      47801.415      77             82.356614    
     11100   294.48906      83921.558      891.70625     -1699.6397      70916.527      18516.575     -4586.4304     -117.18062      1.0542047      48146.262      78             119.68892    
     11200   294.03464      218545.25      22.072376     -1548.5157      206407.24      18433.548     -4645.8134     -123.28892      1.0844556      46803.221      79             117.78193    
     11300   302.30355      11287.749     -2520.4184     -1525.3742      1588.7359      18402.19      -4546.576      -110.80881      1.1377257      44611.821      79             111.71367    
     11400   298.31939      52873.209     -603.82149     -1736.6763      41586.048      18319.909     -4550.2013     -142.04882      1.1273438      45022.656      80             113.65705    
     11500   297.55027      10792.014     -2499.5364     -1783.6363      1619.5106      18128.979     -4552.6529     -120.65035      1.1332996      44786.05       80             120.93233    
     11600   297.15326      10696.771     -2549.5581     -1839.396       1576.9545      18202.716     -4582.7123     -111.23335      1.1193466      45344.323      80             73.527739    
     11700   297.08862      10537.8       -2525.7129     -2012.8554      1575.8697      18177.254     -4557.0802     -119.67473      1.1071742      45842.843      80             80.225504    
     11800   296.27636      10746.295     -2563.2388     -1910.304       1636.6949      18258.701     -4552.7148     -122.84345      1.0956152      46326.497      80             77.142119    
     11900   306.66505      10880.275     -2560.455      -1627.3365      1589.8001      18236.671     -4646.4608     -111.94431      1.0855679      46755.266      80             78.0528      
     12000   304.69872      58676.595     -356.29591     -1718.5585      47251.142      18231.002     -4616.8501     -113.84474      1.0759348      47173.875      81             79.293104    
     12100   299.7615       10911.724     -2521.1554     -1554.9411      1628.767       18116.167     -4642.9166     -114.1966       1.0925835      46455.042      81             126.80007    
     12200   293.88086      63674.01      -565.56565     -1794.3415      52678.114      18135.717     -4665.6283     -114.28546      1.0837658      46833.011      82             105.07101    
     12300   300.11503      69885.355     -581.81342     -1777.4553      58970.293      18044.315     -4651.7259     -118.25895      1.1026942      46029.092      83             124.40311    
     12400   302.32339      10534.205     -2533.2397     -1685.8656      1581.0732      17961.378     -4670.2414     -118.89983      1.1221166      45232.39       83             119.93276    
     12500   292.35536      10427.047     -2527.7168     -1839.7169      1574.0929      17923.784     -4572.6326     -130.76322      1.1105928      45701.732      83             118.33938    
     12600   294.35426      10329.383     -2598.8669     -1842.0421      1602.9791      17879.141     -4602.2672     -109.56146      1.0981089      46221.294      83             86.879315    
     12700   294.65997      10164.982     -2568.3526     -2024.0169      1599.6592      17835.93      -4570.1317     -108.10654      1.0873797      46677.358      83             84.494564    
     12800   299.48419      10092.551     -2535.7729     -2086.6848      1597.417       17795.664     -4560.6083     -117.46409      1.0784731      47062.845      83             85.419207    
     12900   301.63104      10058.225     -2529.4071     -2151.7976      1653.7457      17868.653     -4669.1498     -113.81873      1.0694988      47457.758      83             80.59457     
     13000   303.3703       10223.231     -2533.8303     -1994.3066      1613.1483      17901.904     -4645.0835     -118.60073      1.0612736      47825.569      83             77.684139    
     13100   305.82233      10134.219     -2553.8482     -1991.7006      1624.6228      17851.538     -4677.9588     -118.43412      1.0542708      48143.24       83             131.42293    
     13200   294.99734      10230.046     -2544.7457     -1960.7548      1651.8831      17815.135     -4614.6317     -116.83972      1.0486332      48402.064      83             111.54393    
     13300   289.59399      10084.904     -2514.2471     -2078.093       1582.4075      17888.422     -4671.7714     -121.81478      1.0428059      48672.541      83             120.69646    
     13400   291.92244      10249.952     -2506.6551     -1918.3911      1617.5601      17796.197     -4626.3108     -112.44801      1.0381649      48890.126      83             53.780705    
     13500   294.76445      10148.79      -2500.2999     -2094.0533      1669.014       17844.31      -4655.6703     -114.51036      1.0327659      49145.71       83             42.312934    
     13600   299.3112       10399.01      -2496.36       -1891.403       1731.4244      17841.736     -4681.7627     -104.62455      1.0287451      49337.793      83             46.550502    
     13700   301.00189      10236.556     -2446.8224     -2097.0487      1650.539       17873.867     -4633.3686     -110.6104       1.024363       49548.856      83             75.134504    
     13800   300.53626      10285.656     -2477.2546     -2046.6894      1686.6678      17947.527     -4723.4348     -101.15957      1.0197902      49771.035      83             89.091542    
     13900   303.0744       10270.391     -2436.2943     -1974.4674      1658.6134      17820.768     -4689.862      -108.36589      1.0165237      49930.969      83             88.707768    
     14000   297.19648      10160.331     -2440.7118     -2071.4848      1693.5432      17794.631     -4707.156      -108.49027      1.0142939      50040.734      83             78.797568    
     14100   293.42307      10423.007     -2461.428      -1851.1505      1672.2533      17858.92      -4692.9374     -102.64998      1.0117044      50168.817      83             80.765404    
     14200   296.84484      10247.459     -2471.9217     -2039.6445      1687.2258      17830.019     -4640.4459     -117.77429      1.0087452      50315.992      83             129.03091    
     14300   308.44655      10239.274     -2510.6208     -1938.5413      1695.0953      17735.292     -4632.0097     -109.94204      1.0080571      50350.334      83             135.72412    
     14400   299.04356      10494.883     -2467.3695     -1819.4197      1667.7426      17832.872     -4614.5007     -104.44113      1.0074262      50381.869      83             136.70803    
     14500   299.42563      10478.968     -2455.0884     -1784.3141      1697.8239      17783.494     -4642.492      -120.45494      1.0069523      50405.579      83             137.48943    
     14600   295.36215      10374.864     -2423.7014     -1950.2709      1698.356       17881.549     -4723.8957     -107.17369      1.0046412      50521.533      83             88.656906    
     14700   298.40735      10451.508     -2428.2594     -1845.1825      1737.483       17744.724     -4642.0181     -115.23971      1.0009268      50709.017      83             87.01689     
     14800   306.50891      10376.079     -2433.1361     -1908.0594      1718.8001      17720.029     -4608.1838     -113.37076      0.99873924     50820.086      83             91.472779    
     14900   306.65318      10221.536     -2437.903      -2042.6262      1676.1865      17778.593     -4643.5068     -109.2076       0.99688094     50914.82       83             86.502728    
     15000   299.08666      10142.079     -2455.8365     -2121.3257      1743.5874      17716.176     -4617.3459     -123.17622      0.99608648     50955.428      83             88.925601    
     15100   297.57493      10271.679     -2417.0261     -1993.7623      1695.7254      17802.832     -4699.6447     -116.44561      0.99650873     50933.838      83             119.99474    
     15200   301.35266      10456.766     -2433.534      -1795.2143      1683.9288      17793.026     -4685.4309     -106.00913      0.99573838     50973.242      83             104.51269    
     15300   297.76002      74695.098     -783.59468     -1858.8767      64380.01       17662.129     -4581.3172     -123.25292      0.99536692     50992.265      84             116.06769    
     15400   302.58972      10239.306     -2487.9238     -1910.076       1637.4308      17788.072     -4680.8675     -107.33009      1.0301863      49268.769      84             119.95354    
     15500   298.15467      10108.974     -2484.71       -1985.8858      1725.3739      17658.286     -4685.1323     -118.9578       1.0281055      49368.489      84             114.01437    
     15600   298.98892      10208.976     -2470.5712     -1868.479       1711.3627      17683.6       -4723.2034     -123.73312      1.0253108      49503.051      84             76.729833    
     15700   296.92844      10353.461     -2465.4889     -1795.4195      1659.3544      17689.978     -4622.7758     -112.18728      1.0222221      49652.628      84             62.295265    
     15800   301.10793      72209.698     -383.10842     -1871.2794      61709.129      17575.208     -4705.3332     -114.91796      1.0191127      49804.12       85             73.806067    
     15900   308.06696      10296.481     -2497.3272     -1735.0119      1699.558       17727.403     -4793.0649     -105.07567      1.0466373      48494.365      85             79.521482    
     16000   301.09785      10139.726     -2503.2415     -1821.2989      1678.7356      17541.574     -4634.9873     -121.05595      1.0436168      48634.721      85             67.938051    
     16100   298.43481      86096.734     -55.996402     -1732.4142      75121.843      17504.863     -4628.9602     -112.60148      1.0384697      48875.776      86             109.18199    
     16200   295.92822      10096.823     -2516.1394     -1788.1618      1724.0735      17493.242     -4702.5619     -113.62941      1.067939       47527.071      86             114.0481     
     16300   300.7677       9671.0337     -2513.5171     -2157.8628      1687.4052      17379.855     -4612.1875     -112.65941      1.0630347      47746.339      86             127.78646    
     16400   297.72294      9955.6645     -2527.9435     -1901.1561      1630.0873      17561.642     -4695.4211     -111.54437      1.057904       47977.901      86             115.62241    
     16500   294.84947      9971.0788     -2535.8246     -1952.1593      1733.917       17512.9       -4674.1385     -113.61547      1.0517011      48260.876      86             124.98006    
     16600   303.91405      9896.1497     -2527.3161     -1936.2655      1644.0619      17490.694     -4653.3234     -121.70096      1.0457357      48536.176      86             82.495139    
     16700   306.95196      9869.958      -2521.4586     -2005.4335      1692.5809      17381.778     -4572.7722     -104.73691      1.0410515      48754.565      86             88.828361    
     16800   308.99146      10063.313     -2500.149      -1756.9145      1731.4848      17421.884     -4705.4811     -127.51068      1.0371343      48938.709      86             81.958989    
     16900   300.76601      9740.4916     -2482.1361     -2080.7557      1688.7826      17465.016     -4733.523      -116.89201      1.0316948      49196.733      86             84.857529    
     17000   299.51668      9838.1735     -2466.2723     -1983.0549      1713.0511      17407.318     -4717.8909     -114.97789      1.0275983      49392.854      86             86.758186    
     17100   300.42883      9724.9136     -2479.2299     -2137.5219      1684.5505      17462.663     -4696.8369     -108.71159      1.0227878      49625.165      86             137.67224    
     17200   300.43469      10108.527     -2444.4365     -1805.2046      1717.9626      17472.032     -4718.6747     -113.15111      1.0193253      49793.736      86             129.06163    
     17300   303.03543      10062.606     -2456.0482     -1843.6364      1725.6802      17439.947     -4695.8438     -107.49345      1.0161869      49947.516      86             125.99164    
     17400   306.39739      9719.2372     -2404.3335     -2253.7444      1751.8531      17485.128     -4754.4933     -105.17296      1.0138792      50061.205      86             121.38007    
     17500   305.49293      9864.1839     -2435.347      -2087.1555      1753.8416      17412.598     -4668.7755     -110.97783      1.0093686      50284.913      86             126.22643    
     17600   301.26836      125613.19     -781.38685     -1885.3974      115771.42      17388.217     -4778.0784     -101.57746      1.0067081      50417.804      87             85.128758    
     17700   307.57384      9938.0863     -2517.5461     -1805.7235      1692.5964      17507.102     -4826.5593     -111.78275      1.0497647      48349.896      87             77.282024    
     17800   301.70122      9905.3041     -2485.0544     -1795.7178      1672.2202      17313.518     -4672.2097     -127.45226      1.0468335      48485.277      87             87.577736    
     17900   300.29991      9736.5249     -2530.4123     -1938.8229      1672.613       17330.544     -4678.2756     -119.12156      1.0430766      48659.91       87             86.649246    
     18000   296.34925      9977.6806     -2507.5353     -1724.6025      1725.8935      17295.397     -4698.7058     -112.76638      1.0393971      48832.169      87             89.487813    
     18100   300.52341      9865.405      -2523.0695     -1804.0068      1666.332       17355.214     -4710.026      -119.03913      1.0356897      49006.97       87             142.54721    
     18200   301.69486      9926.161      -2506.6409     -1854.5665      1682.0804      17453.228     -4740.8203     -107.11935      1.0320785      49178.445      87             135.15083    
     18300   301.4799       64295.016     -755.38168     -1725.3042      54219.381      17385.334     -4719.4218     -109.5916       1.0278376      49381.355      88             136.28204    
     18400   301.67713      9889.1407     -2515.7283     -1814.8077      1682.7124      17429.335     -4782.7615     -109.60907      1.0521779      48239.004      88             117.10255    
     18500   299.35676      9742.5933     -2493.3657     -1900.059       1670.4447      17314.399     -4736.691      -112.13453      1.0493372      48369.594      88             114.91304    
     18600   297.00904      9577.1017     -2513.8623     -2064.9707      1699.7208      17273.231     -4717.4221     -99.594817      1.0442564      48604.932      88             78.872814    
     18700   300.74077      9617.3655     -2488.4074     -1971.6436      1694.4941      17229.88      -4744.5704     -102.38695      1.0400217      48802.842      88             80.589262    
     18800   303.27861      9700.1476     -2499.2304     -1936.1383      1705.5215      17230.047     -4692.8291     -107.22336      1.0355322      49014.422      88             92.070254    
     18900   303.64144      9786.0293     -2512.0316     -1913.8642      1748.8622      17309.6       -4732.5815     -113.95592      1.0309634      49231.637      88             91.68297     
     19000   309.51462      9671.9537     -2466.0236     -1991.2267      1683.6629      17208.369     -4658.9868     -103.84108      1.0278795      49379.342      88             91.01931     
     19100   301.74618      9785.1557     -2477.0857     -1865.8655      1725.6966      17267.51      -4749.8526     -115.24677      1.0230512      49612.389      88             138.19336    
     19200   297.52086      9652.8601     -2460.1791     -1990.0408      1739.4389      17294.487     -4820.1023     -110.74321      1.0201161      49755.135      88             142.16481    
     19300   300.28978      9692.7127     -2472.6889     -1913.2111      1662.7178      17316.237     -4790.5037     -109.83802      1.0175896      49878.666      88             141.66182    
     19400   304.88065      73508.632      2539.4175     -1890.7783      60699.539      17045.948     -4775.9127     -109.58161      1.0151717      49997.465      90             140.97853    
     19500   304.65368      9607.218      -2460.879      -1864.6859      1670.0613      17090.783     -4714.4799     -113.5814       1.0444089      48597.836      90             141.58059    
     19600   304.55307      9457.7569     -2504.0387     -1878.0375      1669.8158      17052.383     -4769.7884     -112.57716      1.0423358      48694.492      90             90.270433    
     19700   296.4707       9509.0954     -2464.5161     -1883.2174      1667.883       17060.736     -4753.8642     -117.92588      1.0387058      48864.668      90             88.889734    
     19800   301.72902      50558.012      311.55484     -1886.2968      40039.516      16880.676     -4683.6052     -103.83263      1.0338725      49093.106      91             84.301191    
     19900   298.34203      85238.752      396.70392     -1784.5254      74528.793      17052.167     -4842.3907     -111.99529      1.0523266      48232.19       92             83.319343    
     20000   301.6729       39472.4        697.49157     -1678.5394      28488.073      16853.757     -4771.8589     -116.52284      1.0821853      46901.406      93             78.382948    
     20100   298.43457      310546.23     -794.62885     -1926.0283      301424.94      16684.42      -4732.0652     -110.40951      1.0874852      46672.83       94             111.26298    
     20200   312.3375       9585.8441     -2423.9751     -1674.4016      1650.2045      16969.106     -4830.7347     -104.35551      1.154074       43979.859      94             118.26907    
     20300   307.08377      9310.1809     -2456.6533     -1765.3884      1616.1591      16744.14      -4704.9907     -123.08609      1.1418056      44452.412      94             122.04085    
     20400   298.58698      9218.1063     -2524.4364     -1728.8542      1624.0675      16642.174     -4683.4777     -111.36665      1.1273639      45021.855      94             116.7267     
     20500   296.66273      9141.8886     -2503.7266     -1717.0861      1593.8493      16536.501     -4659.1447     -108.5041       1.1142318      45552.474      94             114.3598     
     20600   298.56595      38020.969      97.314159     -1582.123       27830.445      16463.444     -4684.0506     -104.06108      1.1019848      46058.726      95             75.471483    
     20700   303.20932      8875.4591     -2541.8826     -1851.5726      1612.1828      16416.744     -4650.5465     -109.4664       1.1049546      45934.932      95             79.794398    
     20800   298.28931      70871.868      801.51394     -1960.9853      60374.882      16521.216     -4753.9033     -110.85548      1.0942056      46386.174      96             53.221237    
     20900   305.53726      9054.783      -2536.1141     -1626.1339      1667.1313      16431.573     -4779.9758     -101.69729      1.1159196      45483.577      96             60.953175    
     21000   299.5449       8856.6899     -2537.5486     -1801.8093      1581.4385      16454.997     -4728.1801     -112.20776      1.1054939      45912.524      96             28.359417    
     21100   296.5906       98054.938     -667.56014     -1806.6931      88988.275      16473.506     -4831.0143     -101.57456      1.0939552      46396.795      97             102.98837    
     21200   299.57007      8836.8418     -2526.2415     -1842.0703      1623.1411      16440.282     -4753.6691     -104.6007       1.1262579      45066.067      97             98.659107    
     21300   292.75566      113740.83      1544.395      -1782.2869      102583.82      16273.384     -4767.0681     -111.41654      1.1164911      45460.294      99             64.275237    
     21400   301.04842      28420.884     -937.02377     -1658.0401      19827.241      16008.227     -4713.8934     -105.62638      1.1447213      44339.187      100            108.54607    
     21500   296.83811      8391.2803     -2479.4025     -1846.5483      1576.612       15939.268     -4693.6934     -104.95596      1.1394412      44544.653      100            105.9924     
     21600   302.19115      167132.97     -347.71811     -1905.3313      158464.33      15760.06      -4732.101      -106.26158      1.1257426      45086.694      101            76.752868    
     21700   310.59253      8536.8414     -2452.9189     -1736.2324      1612.4353      15992.008     -4787.396      -91.054222      1.170852       43349.641      101            75.847903    
     21800   301.06131      8122.4385     -2482.2333     -2033.6129      1571.7078      15805.671     -4624.835      -114.25943      1.1571988      43861.103      101            74.01193     
     21900   298.09496      251144.28      431.13351     -1887.0386      241598.83      15797.247     -4694.7724     -101.11185      1.142456       44427.105      102            75.63538     
     22000   304.64509      72236.435     -214.66901     -1770.9455      62993.97       16151.831     -4815.8881     -107.86329      1.2005307      42277.982      103            71.27155     
     22100   306.18144      8235.3864     -2436.7544     -1883.1201      1601.7109      15713.107     -4653.4296     -106.12751      1.2061259      42081.855      103            107.47954    
     22200   298.2279       8234.7017     -2478.5006     -1725.9235      1552.3462      15736.621     -4744.7967     -105.04435      1.1855753      42811.295      103            115.42503    
     22300   298.10514      7729.2083     -2536.5731     -2057.3663      1554.209       15581.402     -4708.2261     -104.23719      1.1659619      43531.451      103            119.1356     
     22400   298.51922      8011.4888     -2543.3143     -1761.2708      1562.1351      15539.29      -4682.593      -102.75828      1.1485608      44190.968      103            102.82895    
     22500   300.67568      7827.731      -2566.0441     -1975.1168      1573.1425      15567.147     -4674.8797     -96.518459      1.1333474      44784.161      103            119.69651    
     22600   301.8746       7820.6045     -2577.8267     -1986.8375      1605.4999      15625.364     -4747.6179     -97.977268      1.1200941      45314.063      103            72.614474    
     22700   298.40239      7915.6761     -2551.3926     -1959.8776      1641.7234      15579.001     -4696.5336     -97.244472      1.1086701      45780.991      103            70.099345    
     22800   302.47212      7875.8228     -2566.3206     -1993.8661      1644.3814      15562.381     -4669.9727     -100.77985      1.0985075      46204.523      103            82.531593    
     22900   300.97161      7914.6315     -2550.8537     -2021.5024      1668.9416      15660.566     -4742.965      -99.554588      1.0883378      46636.267      103            78.338339    
     23000   298.7373       7677.4591     -2546.1463     -2171.5741      1596.6142      15560.743     -4660.1249     -102.05266      1.0792462      47029.133      103            84.432828    
     23100   295.07674      7757.1271     -2544.8791     -2040.3703      1626.9558      15556.326     -4735.906      -104.99901      1.0712034      47382.235      103            138.21487    
     23200   295.77489      7832.7961     -2599.7918     -2005.7935      1634.1955      15602.596     -4698.4441     -99.965965      1.0652771      47645.83       103            131.11583    
     23300   298.6051       87607.821     -402.93952     -2024.1789      79229.192      15685.791     -4779.4361     -100.60717      1.0606221      47854.945      104            129.5919     
     23400   298.49769      8017.4814     -2517.3844     -1867.97        1643.27        15647.588     -4782.3839     -105.63873      1.0939285      46397.925      104            116.1262     
     23500   302.5817       7702.5991     -2557.0626     -2037.6062      1646.3057      15482.059     -4725.4238     -105.67314      1.0889306      46610.879      104            115.88408    
     23600   298.48734      7598.0992     -2571.5964     -2106.8596      1602.8583      15581.706     -4811.6947     -96.314319      1.0829478      46868.384      104            81.22694     
     23700   299.92101      7673.4083     -2575.4207     -1989.9194      1661.5902      15433.339     -4758.7409     -97.439995      1.0767108      47139.875      104            83.817171    
     23800   298.03219      7772.3722     -2529.5081     -1957.7266      1675.5971      15429.271     -4741.5351     -103.72586      1.0715573      47366.588      104            74.248379    
     23900   300.98679      7818.4805     -2574.2279     -1926.5504      1700.6164      15500.628     -4778.2195     -103.76644      1.0658948      47618.22       104            69.739107    
     24000   304.92458      7670.0677     -2547.1549     -2070.92        1702.3132      15480.726     -4788.0485     -106.84809      1.0603849      47865.653      104            79.790306    
     24100   308.09124      7790.0908     -2519.0077     -1953.8473      1686.389       15442.415     -4764.931      -100.92666      1.0554769      48088.23       104            131.8478     
     24200   297.61625      7622.8406     -2537.9119     -2164.8928      1683.9607      15456.301     -4706.0852     -108.53144      1.0506421      48309.519      104            120.87482    
     24300   299.28202      7685.1159     -2498.7505     -2034.2083      1644.5087      15431.93      -4750.3043     -108.0595       1.0464921      48501.094      104            118.55815    
     24400   296.05587      7827.9596     -2548.91       -1962.6687      1695.7727      15492.938     -4749.1504     -100.02156      1.0415852      48729.584      104            129.007      
     24500   298.13542      7900.8947     -2520.5072     -1944.9855      1763.8039      15485.47      -4774.9912     -107.89513      1.0386657      48866.553      104            123.3613     
     24600   305.13828      8042.2292     -2475.5196     -1755.6202      1703.2606      15479.541     -4805.898      -103.53455      1.0365554      48966.04       104            84.05592     
     24700   295.87717      7997.2116     -2489.335      -1863.7965      1642.5488      15535.434     -4721.1206     -106.51902      1.032739       49146.99       104            84.54214     
     24800   297.87527      7911.2955     -2477.7319     -1816.0066      1610.4513      15381.611     -4684.8886     -102.13924      1.029934       49280.842      104            82.470537    
     24900   299.27117      7757.8375     -2480.6205     -1952.5261      1614.1362      15451.922     -4778.4519     -96.622221      1.0277241      49386.807      104            83.084733    
     25000   298.80926      7826.6703     -2507.5097     -2015.1982      1709.2547      15504.492     -4762.7825     -101.58611      1.02572        49483.305      104            81.443671    
     25100   302.32079      8088.8589     -2490.6785     -1736.9804      1727.8837      15451.465     -4761.6613     -101.16915      1.0254376      49496.933      104            130.13909    
     25200   301.48765      7953.8619     -2473.4573     -1866.9467      1694.1217      15457.637     -4758.7556     -98.736884      1.0237343      49579.282      104            128.77026    
     25300   304.34792      7995.6363     -2467.7033     -1745.0079      1673.9192      15374.218     -4739.1283     -100.66183      1.0216531      49680.282      104            125.2793     
     25400   298.41303      7907.4111     -2417.7184     -1927.5925      1753.3048      15438.396     -4836.2056     -102.77362      1.0193148      49794.249      104            123.81699    
     25500   302.8666       82042.329     -376.82011     -1818.7206      73756.357      15417.97      -4847.7279     -88.729311      1.0174111      49887.421      105            117.84402    
     25600   298.12995      7883.8725     -2510.5909     -1766.1655      1719.135       15381.233     -4838.9682     -100.77125      1.0535954      48174.104      105            82.34673     
     25700   295.8232       7750.2592     -2516.7594     -1878.8073      1668.9009      15387.124     -4802.4214     -107.77736      1.0521944      48238.248      105            81.45107     
     25800   296.22567      7818.7822     -2512.1632     -1792.0924      1653.0918      15347.34      -4777.5578     -99.835853      1.049206       48375.64       105            81.688529    
     25900   298.10549      7751.4713     -2482.3563     -1871.123       1679.9942      15353.184     -4815.4874     -112.74013      1.045463       48548.836      105            80.43713     
     26000   302.26634      7743.8138     -2552.9206     -1903.8811      1685.9527      15423.567     -4810.2516     -98.652856      1.0415652      48730.521      105            82.001262    
     26100   304.49764      7614.8779     -2443.9103     -2055.3403      1711.0101      15260.024     -4754.0639     -102.84127      1.0390256      48849.629      105            115.44924    
     26200   308.58572      7549.0062     -2499.8783     -2142.066       1750.5662      15325.482     -4788.1037     -96.993809      1.0359459      48994.848      105            135.06307    
     26300   310.32898      7586.36       -2480.9742     -2058.5914      1717.8837      15359.265     -4856.5499     -94.67323       1.0333548      49117.704      105            138.31089    
     26400   302.2728       7569.712      -2511.0001     -2051.8813      1709.1071      15386.67      -4857.1151     -106.06874      1.030509       49253.343      105            141.51364    
     26500   297.39562      62764.166      190.92378     -1874.6316      54123.878      15287.114     -4868.8343     -94.284447      1.0300488      49275.349      106            132.6514     
     26600   293.41766      7675.7386     -2492.3081     -1885.216       1661.0128      15304.01      -4811.6702     -100.08972      1.0578411      47980.756      106            83.348832    
     26700   300.93269      7402.9751     -2552.7301     -2012.7709      1671.6018      15301.631     -4895.7878     -108.9689       1.0552193      48099.968      106            84.901991    
     26800   297.74317      33769.045      59.573709     -2024.2608      25496.104      15222.889     -4881.7845     -103.47577      1.0512482      48281.667      107            90.514425    
     26900   303.12374      7671.7578     -2512.4453     -1730.6641      1666.6527      15215.234     -4867.5309     -99.488563      1.0592853      47915.341      107            89.366424    
     27000   304.20283      7484.6834     -2520.516      -1923.3753      1674.4168      15168.738     -4818.8336     -95.746302      1.055262       48098.022      107            89.234798    
     27100   298.76716      7472.1773     -2522.6103     -1938.1369      1643.4189      15211.215     -4822.0801     -99.628936      1.0505042      48315.859      107            141.44276    
     27200   295.95161      7450.5339     -2514.5582     -1920.6454      1699.6147      15082.132     -4793.139      -102.87062      1.0456246      48541.336      107            137.16246    
     27300   299.35453      7359.1907     -2529.4619     -1968.2631      1650.7491      15104.891     -4799.9599     -98.764219      1.0421298      48704.117      107            142.66497    
     27400   299.92476      7536.973      -2498.8012     -1899.1971      1648.8885      15184.322     -4794.5497     -103.68937      1.039663       48819.678      107            139.31742    
     27500   303.20868      68441.415     -330.74743     -1792.5851      60364.702      15132.814     -4830.1871     -102.58096      1.0376028      48916.611      108            136.68388    
     27600   302.16787      7537.0572     -2505.1686     -1806.4688      1664.7475      15154.382     -4866.1257     -104.30879      1.0673327      47554.071      108            84.66998     
     27700   302.95387      7239.7776     -2550.5599     -1971.1373      1737.9454      15004.209     -4883.2878     -97.391655      1.0635472      47723.331      108            80.164201    
     27800   295.90881      7535.6282     -2461.5056     -1724.0101      1681.2212      14980.864     -4843.7306     -97.211113      1.058676       47942.916      108            79.352369    
     27900   299.25541      7268.7688     -2495.7707     -1962.9739      1665.8799      15022.865     -4860.6523     -100.57909      1.0534936      48178.758      108            65.396051    
     28000   303.57765      7327.6661     -2498.0475     -1918.794       1640.7033      14984.396     -4789.6946     -90.897171      1.0493808      48367.584      108            87.997845    
     28100   303.8394       7330.1622     -2481.3488     -1970.5531      1736.2876      15000.746     -4857.2251     -97.743915      1.0443153      48602.192      108            107.9863     
     28200   304.15867      7445.3088     -2496.4241     -1819.9046      1706.9886      14925.975     -4784.7437     -86.581937      1.0386587      48866.884      108            123.15746    
     28300   299.34208      7491.9708     -2494.8825     -1824.6819      1702.3119      15106.561     -4904.8202     -92.517558      1.0355717      49012.556      108            83.850868    
     28400   303.45901      7222.3761     -2482.826      -1995.4578      1675.1657      14976.403     -4854.0316     -96.876739      1.032838       49142.28       108            91.669927    
     28500   296.16826      7104.9251     -2483.9807     -2088.8201      1631.2596      14968.852     -4825.2911     -97.094389      1.030573       49250.285      108            58.119064    
     28600   292.68613      7338.6527     -2495.59       -1878.8918      1696.4958      14912.507     -4794.0564     -101.81147      1.0295049      49301.383      108            79.933015    
     28700   296.36882      7476.0405     -2477.9933     -1785.6167      1682.4446      15011.02      -4865.6377     -88.176344      1.0266145      49440.188      108            86.868228    
     28800   302.34158      7389.4837     -2464.6358     -1867.0199      1737.7598      14911.292     -4824.5357     -103.37671      1.023467       49592.233      108            79.861163    
     28900   296.52077      50741.105     -185.26191     -1916.3609      42793.811      14989.591     -4844.858      -95.816599      1.0215309      49686.224      109            80.482345    
     29000   297.47032      258517.1       5.2570916     -1727.159       250303.72      14960.864     -4924.1249     -101.45588      1.0456414      48540.553      110            59.599722    
     29100   310.06253      7450.1065     -2581.7858     -1767.5278      1650.1998      15188.392     -4943.8533     -95.317982      1.1062212      45882.338      110            88.190115    
     29200   305.12461      7413.0378     -2530.5316     -1700.5447      1643.7127      14940.155     -4832.5209     -107.2327       1.1006516      46114.515      110            87.118067    
     29300   297.72183      7065.0535     -2546.0551     -1985.0754      1656.8539      14890.926     -4850.4331     -101.16295      1.0937181      46406.852      110            112.13808    
     29400   297.13868      6933.5775     -2561.1746     -2022.8356      1635.3398      14875.519     -4896.9565     -96.314454      1.0855267      46757.04       110            49.03449     
     29500   297.86011      6953.7934     -2531.7203     -2001.083       1644.534       14848.858     -4909.3485     -97.446301      1.0777005      47096.588      110            61.01391     
     29600   295.42356      7033.7616     -2526.5686     -2020.0903      1641.5452      14890.7       -4855.1638     -96.661402      1.0707692      47401.452      110            68.305278    
     29700   300.01756      7145.2039     -2527.2483     -1927.3789      1691.702       14831.391     -4833.0258     -90.236218      1.0639635      47704.655      110            82.394913    
     29800   298.22572      7232.8915     -2521.5075     -1879.0357      1693.6131      14959.39      -4923.9367     -95.632097      1.0577063      47986.867      110            80.242253    
     29900   299.15585      7121.8447     -2480.7648     -1936.4045      1664.3065      14834.075     -4865.4066     -93.960537      1.0511474      48286.293      110            78.055246    
     30000   294.33445      7083.7479     -2511.4302     -1915.5328      1655.4852      14786.829     -4833.449      -98.154014      1.0456667      48539.382      110            70.796991    
     30100   299.24191      29522.718     -983.80867     -1847.2115      22674.447      14687.548     -4914.9155     -93.340742      1.0418264      48718.3        111            111.39128    
     30200   300.19746      6859.3741     -2468.0016     -1981.0164      1655.4907      14697.599     -4958.0616     -86.635903      1.0505903      48311.899      111            112.98718    
     30300   302.96034      6843.9955     -2486.5255     -2020.1632      1622.5858      14710.777     -4880.4631     -102.21526      1.0451241      48564.581      111            106.19833    
     30400   299.65347      6835.4037     -2469.7745     -2100.8741      1642.2881      14786.736     -4928.7329     -94.238452      1.039696       48818.127      111            127.18551    
     30500   303.02098      6822.9649     -2525.5715     -2069.7459      1682.7627      14694.416     -4871.6756     -87.220712      1.0347097      49053.385      111            81.676851    
     30600   299.13397      6920.0401     -2489.3764     -1994.4775      1655.809       14681.362     -4842.2803     -90.996714      1.0310346      49228.234      111            82.507538    
     30700   300.09162      6870.6109     -2492.9957     -2056.2866      1664.4635      14716.629     -4875.2684     -85.931032      1.027852       49380.662      111            71.056337    
     30800   300.30853      7042.7494     -2450.5392     -1946.3605      1705.4021      14760.822     -4933.853      -92.722054      1.0254354      49497.036      111            58.435148    
     30900   304.451        7063.8328     -2465.8619     -2004.7133      1735.8848      14728.5       -4829.8847     -100.09179      1.0226196      49633.326      111            63.749201    
     31000   306.36876      7042.1323     -2458.9012     -1963.6972      1674.8284      14759.705     -4886.844      -82.958997      1.0199191      49764.747      111            69.125573    
     31100   300.26539      263979.86      2520.1926     -1900.0308      253760.94      14588.744     -4893.3163     -96.673942      1.0177399      49871.301      113            89.923339    
     31200   311.77509      7055.6746     -2506.329      -1731.2198      1633.2509      14738.266     -4992.1982     -86.095636      1.0757478      47182.075      113            58.702771    
     31300   304.6877       6959.4695     -2525.297      -1758.7081      1672.5172      14543.387     -4880.2778     -92.152092      1.0723396      47332.031      113            138.94786    
     31400   301.77317      66849.514     -445.52518     -1975.3568      59883.692      14426.927     -4939.5935     -100.62957      1.0674376      47549.397      114            117.32473    
     31500   297.73367      6703.4793     -2506.0227     -1853.2969      1665.0955      14433.077     -4951.5504     -83.82346       1.0883305      46636.581      114            106.05954    
     31600   299.05444      92303.09      -210.59674     -1599.488       84838.529      14267.845     -4894.7273     -98.470965      1.0824986      46887.833      115            50.658073    
     31700   300.94709      6834.8928     -2533.5211     -1582.7744      1635.9802      14363.065     -4957.8105     -90.046113      1.1116407      45658.649      115            83.621441    
     31800   299.52547      6711.7307     -2546.6388     -1603.8962      1640.8992      14169.218     -4853.1315     -94.720326      1.1036797      45987.993      115            83.725678    
     31900   295.66878      6522.6683     -2542.4285     -1841.204       1592.6171      14249.658     -4845.3829     -90.591429      1.0948543      46358.691      115            68.11853     
     32000   298.62072      28685.78      -244.3321      -2061.9374      21633.679      14320.231     -4872.738      -89.122721      1.0867781      46703.199      116            79.215421    
     32100   303.03635      92768.165     -1457.6312     -1869.9671      87049.225      14077.592     -4936.6363     -94.417173      1.0881619      46643.808      117            130.75354    
     32200   300.87563      6544.6136     -2483.5719     -1776.1293      1634.338       14167.12      -4900.8305     -96.312403      1.1194811      45338.877      117            110.41922    
     32300   302.81368      6266.2527     -2532.7284     -1880.0894      1595.6468      14029.041     -4851.147      -94.470312      1.1103451      45711.926      117            70.832507    
     32400   297.0627       6109.1797     -2508.9585     -2055.3202      1565.5535      14076.906     -4869.5271     -99.474049      1.1007342      46111.054      117            69.970916    
     32500   294.99303      6192.6971     -2521.1727     -2015.5393      1663.0405      14020.078     -4861.2416     -92.468078      1.092029       46478.632      117            52.665187    
     32600   305.78802      29497.075     -101.69453     -1979.7964      22576.7        13997.278     -4902.5602     -92.851721      1.0830327      46864.711      118            70.859323    
     32700   294.76231      6246.3915     -2510.3963     -1934.7945      1679.5005      13926.18      -4813.9141     -100.18407      1.0845069      46801.005      118            65.88195     
     32800   301.48666      6328.0794     -2514.4864     -1786.5861      1646.0679      13802.707     -4730.1455     -89.477268      1.0774708      47106.624      118            54.519342    
     32900   302.83852      162858.63     -434.00943     -1854.5586      156317.36      13785.234     -4874.6445     -80.74823       1.0710545      47388.824      119            76.199275    
     33000   300.00025      6406.372      -2499.6172     -1667.4851      1629.4019      13983.797     -4955.389      -84.336032      1.1186124      45374.084      119            70.04487     
     33100   297.40711      6287.0171     -2527.0281     -1741.7782      1659.9597      13865.426     -4880.2295     -89.332988      1.112143       45638.029      119            108.48877    
     33200   295.39335      6129.4591     -2534.8753     -1822.5946      1626.5204      13826.286     -4862.3584     -103.51874      1.103449       45997.607      119            115.66347    
     33300   293.21729      5977.194      -2539.389      -1976.0055      1631.1653      13863.793     -4913.9565     -88.412933      1.0951253      46347.219      119            103.50615    
     33400   301.66023      6050.2867     -2510.4252     -1853.2084      1541.6478      13756.348     -4784.645      -99.430733      1.0862821      46724.522      119            106.71213    
     33500   300.97876      6257.8027     -2494.6292     -1727.6762      1653.5976      13775.378     -4855.8466     -93.021051      1.0785088      47061.287      119            109.44545    
     33600   302.44886      6222.6208     -2571.5053     -1723.8041      1578.833       13881.082     -4854.9778     -87.006525      1.0708898      47396.111      119            72.386498    
     33700   300.91895      6288.6719     -2490.3574     -1715.3132      1651.2953      13748.718     -4816.4019     -89.269182      1.0644224      47684.088      119            70.521357    
     33800   295.86171      6165.6726     -2517.2459     -1889.0667      1630.8685      13856.655     -4827.427      -88.111121      1.0578595      47979.918      119            74.460039    
     33900   297.32346      6188.6342     -2506.1568     -1802.4721      1667.9943      13762.427     -4844.4686     -88.689438      1.0527728      48211.744      119            79.974718    
     34000   297.13312      6114.006      -2559.8848     -1840.5564      1639.0462      13814.738     -4855.7085     -83.629009      1.0477465      48443.028      119            75.28408     
     34100   297.70291      6231.424      -2489.1825     -1776.8387      1634.7717      13745.104     -4793.759      -88.671846      1.0447054      48584.043      119            130.06164    
     34200   303.5429       6003.3581     -2455.6541     -2035.9398      1704.3779      13828.515     -4955.6433     -82.297139      1.0421933      48701.153      119            125.7723     
     34300   301.4283       6437.4472     -2489.0862     -1654.5993      1676.8988      13837.219     -4842.9556     -90.028972      1.0383125      48883.175      119            117.7259     
     34400   299.62486      6334.1739     -2483.5116     -1729.3587      1652.6463      13860.87      -4878.7631     -87.708771      1.035402       49020.586      119            126.55798    
     34500   298.20435      6186.9743     -2515.8533     -1773.7069      1672.8791      13795.68      -4901.3242     -90.700748      1.0325425      49156.342      119            117.43304    
     34600   303.38529      6047.123      -2505.2289     -1803.1803      1644.9657      13659.908     -4863.2901     -86.050949      1.0306121      49248.414      119            82.319789    
     34700   296.94838      6290.8434     -2459.04       -1700.6419      1660.3021      13815.274     -4946.2894     -78.761545      1.0286523      49342.242      119            84.738853    
     34800   300.66203      6149.4927     -2495.5661     -1851.3056      1726.4893      13729.272     -4870.9734     -88.423841      1.0249861      49518.735      119            79.857647    
     34900   300.37357      6182.9169     -2467.8436     -1846.507       1710.8251      13803.589     -4926.7034     -90.442968      1.0236094      49585.332      119            73.36875     
     35000   301.89829      6241.7884     -2467.8711     -1807.8743      1641.2322      13844.715     -4882.2361     -86.177348      1.0222654      49650.524      119            78.177292    
     35100   298.66666      6141.6722     -2466.5529     -1897.8144      1711.8512      13748.043     -4869.3209     -84.534156      1.0197304      49773.953      119            116.90335    
     35200   298.59615      76317.577     -606.48257     -1858.2173      70074.217      13668.708     -4872.9642     -87.683161      1.0180004      49858.541      120            124.77758    
     35300   295.77505      329295.61     -102.26709     -1734.4946      322562.22      13645.959     -4990.7978     -85.009642      1.0541145      48150.379      121            117.37184    
     35400   303.98992      6491.4804     -2423.2828     -1605.2537      1697.7378      13907.363     -4997.485      -87.598457      1.1219038      45240.968      121            90.443254    
     35500   309.3875       31311.973      261.99105     -1948.6645      24338.744      13626.094     -4869.0018     -97.190491      1.1133834      45587.185      122            108.1679     
     35600   304.63663      5535.2573     -2494.4086     -2051.5205      1608.1603      13476.441     -4921.3317     -82.0834        1.1124957      45623.559      122            70.177653    
     35700   306.61608      5800.4149     -2501.4467     -1958.31        1722.7912      13554.97      -4934.5104     -83.079127      1.1023324      46044.201      122            67.886812    
     35800   302.61879      5616.5525     -2530.6758     -1995.3353      1576.8826      13506.31      -4844.5899     -96.039487      1.0930545      46435.025      122            67.041476    
     35900   296.71986      5723.2821     -2548.9055     -1840.6733      1645.4328      13398.543     -4845.3258     -85.788599      1.0843977      46805.717      122            71.534284    
     36000   295.36096      5806.5668     -2503.5704     -1746.2127      1585.1913      13493.808     -4938.1464     -84.502657      1.0760547      47168.618      122            74.264644    
     36100   301.94028      5810.4632     -2554.2261     -1741.7388      1599.9949      13484.669     -4882.9807     -95.255248      1.0694292      47460.843      122            109.80507    
     36200   304.25987      5666.9438     -2486.6388     -1938.6222      1634.1702      13452.913     -4916.4342     -78.444134      1.0636066      47720.663      122            114.85937    
     36300   302.74942      5462.342      -2530.0414     -2204.8513      1637.0605      13523.607     -4878.2253     -85.207348      1.0570032      48018.79       122            111.89597    
     36400   304.94451      5537.3234     -2502.5731     -2033.204       1642.3894      13441.668     -4928.9535     -82.003474      1.0520629      48244.276      122            118.10439    
     36500   297.15677      5612.4267     -2476.2773     -1974.0265      1653.0564      13368.571     -4880.7311     -78.166266      1.0474981      48454.515      122            120.01409    
     36600   300.61098      5417.1653     -2523.9902     -2127.6912      1642.9833      13414.607     -4901.4596     -87.283512      1.0425354      48685.169      122            83.564738    
     36700   300.85681      5870.0795     -2461.7686     -1795.0516      1679.3435      13463.464     -4927.4959     -88.411969      1.0399772      48804.931      122            80.152248    
     36800   308.68985      159308.44      202.9626      -1763.1042      152588.55      13339.078     -4972.205      -86.842218      1.0362486      48980.538      123            75.492375    
     36900   306.81359      5925.9174     -2517.1107     -1720.76        1693.0243      13537.441     -4980.6716     -86.00522       1.0842938      46810.203      123            74.938063    
     37000   306.46015      5769.1723     -2499.7221     -1729.137       1599.8244      13385.988     -4892.2702     -95.510358      1.0799097      47000.238      123            65.581266    
     37100   300.74161      5551.3079     -2559.415      -1872.1154      1598.6494      13352.086     -4882.4714     -85.42584       1.074293       47245.971      123            105.67846    
     37200   293.03936      44986.422      181.50763     -1656.4323      38114.855      13366.936     -4927.819      -92.62497       1.0699739      47436.683      124            93.006701    
     37300   294.60568      5601.4819     -2518.2516     -1799.3855      1652.3603      13362.265     -5017.2499     -78.25657       1.0829259      46869.33       124            115.92512    
     37400   297.91221      5619.6426     -2543.2906     -1821.6471      1668.1784      13237.979     -4835.0725     -86.504741      1.0774753      47106.429      124            113.54213    
     37500   301.23648      5437.7468     -2507.8846     -1997.0661      1695.5194      13302.345     -4965.3112     -89.855414      1.0699843      47436.224      124            114.70711    
     37600   301.96398      5363.4116     -2528.6992     -2015.6524      1661.784       13243.479     -4916.2494     -81.250005      1.0634934      47725.742      124            42.576352    
     37700   296.75077      5438.4308     -2532.4548     -1918.4342      1647.4316      13205.845     -4878.3245     -85.632467      1.058117       47968.245      124            69.604259    
     37800   295.43596      5584.5735     -2498.584      -1779.7819      1725.9326      13223.564     -4997.8589     -88.697995      1.0520448      48245.107      124            79.564364    
     37900   300.44072      5575.1302     -2481.9911     -1770.0288      1620.5255      13217.17      -4924.6282     -85.916989      1.0475097      48453.978      124            65.296588    
     38000   293.26181      5599.0927     -2487.8182     -1879.0247      1692.028       13159.755     -4802.2223     -83.625173      1.0442695      48604.326      124            64.21614     
     38100   298.58827      5545.776      -2501.3198     -1850.2164      1663.3719      13277.954     -4954.7708     -89.242419      1.0411702      48749.008      124            118.60221    
     38200   298.49252      5405.3265     -2484.3521     -2014.7012      1679.6096      13272.061     -4954.1208     -93.170088      1.0382662      48885.359      124            119.04905    
     38300   303.38426      5324.0318     -2467.2237     -2081.263       1641.7159      13280.315     -4967.776      -81.736796      1.0355251      49014.76       124            116.78648    
     38400   306.94617      5542.0733     -2490.7676     -1836.8661      1645.7997      13186.14      -4878.3365     -83.896231      1.0337544      49098.715      124            104.70162    
     38500   301.34025      5512.2729     -2500.0623     -1796.7573      1597.031       13223.728     -4920.7733     -90.892923      1.0320662      49179.029      124            112.12223    
     38600   296.58201      35477.372      768.46645     -1734.9816      28213.896      13244.024     -4939.1328     -74.899858      1.0294882      49302.181      125            71.740696    
     38700   300.62994      5377.9521     -2508.1477     -1851.6111      1713.6181      13134.47      -5028.165      -82.211717      1.0469266      48480.967      125            76.818854    
     38800   298.3668       5329.8615     -2467.7613     -1954.9347      1662.9897      13145.333     -4969.2946     -86.470335      1.0456219      48541.458      125            71.321007    
[...]
    114200   307.18589      1624.7947     -2545.9054     -1987.5486      1688.2242      9824.7861     -5291.9767     -62.784946      1.0860003      46736.648      157            133.35551    
    114300   302.9909       1595.3777     -2562.879      -1921.6324      1674.8706      9714.8445     -5249.5245     -60.301469      1.0834762      46845.526      157            127.76173    
    114400   296.80424      1569.967      -2542.9435     -1943.8154      1682.3792      9682.4852     -5245.9855     -62.152996      1.0791053      47035.275      157            128.52422    
    114500   300.60681      1392.1184     -2548.0017     -1977.5513      1673.9422      9472.183      -5174.2241     -54.229633      1.0745607      47234.199      157            132.47362    
    114600   293.78026      1589.9401     -2542.2599     -1852.7142      1641.6322      9588.8669     -5184.5799     -61.004906      1.0711054      47386.572      157            83.684704    
    114700   300.78652      1639.4264     -2516.2585     -1806.0256      1694.1247      9542.8608     -5211.541      -63.734126      1.0665876      47587.29       157            84.550258    
    114800   300.8382       1829.295      -2516.7219     -1685.521       1686.3006      9624.0825     -5221.2922     -57.552964      1.0617004      47806.345      157            85.797472    
    114900   298.52102      1599.4994     -2534.7608     -1944.5999      1723.7093      9672.7988     -5253.579      -64.068971      1.0571543      48011.924      157            85.928999    
    115000   298.06238      1513.7087     -2499.5864     -1982.4361      1688.029       9572.3398     -5204.5818     -60.055778      1.0529268      48204.693      157            86.467165    
    115100   294.59426      1611.9212     -2523.1392     -1892.5342      1703.6296      9658.508      -5272.0543     -62.488696      1.048858       48391.693      157            135.13828    
    115200   299.0549       1507.7006     -2489.5304     -1952.3983      1691.8936      9522.232      -5204.0644     -60.43178       1.046504       48500.546      157            120.60948    
    115300   302.95873      1452.1793     -2533.5067     -2096.4557      1770.0504      9689.8218     -5317.2822     -60.448359      1.044013       48616.268      157            132.46303    
    115400   300.54556      1516.6036     -2470.8108     -2086.6193      1776.3849      9644.3616     -5288.2518     -58.46098       1.043259       48651.4        157            133.77386    
    115500   297.88786      1652.7035     -2556.3109     -1872.963       1732.8949      9616.9125     -5207.1394     -60.690577      1.0406179      48774.879      157            136.31024    
    115600   298.08762      1591.0487     -2510.1985     -1863.5463      1702.5334      9597.6563     -5273.3456     -62.050685      1.0402544      48791.926      157            82.060589    
    115700   295.41435      1705.3279     -2501.2711     -1803.1698      1716.7608      9646.1613     -5295.4008     -57.752538      1.0396471      48820.424      157            83.394996    
    115800   301.17272      1618.7334     -2510.8017     -1875.2169      1762.1384      9524          -5217.3829     -64.003511      1.0368287      48953.134      157            89.764954    
    115900   302.3053       1919.6424     -2487.9807     -1625.8041      1672.1834      9651.3542     -5230.1912     -59.919268      1.0339559      49089.15       157            84.845534    
    116000   300.62555      1512.8954     -2495.596      -2039.6192      1774.2478      9570.4872     -5238.6409     -57.983508      1.0330978      49129.919      157            84.357894    
    116100   297.04611      1693.5073     -2482.4494     -1896.1881      1785.3982      9525.1725     -5175.765      -62.66084       1.0320347      49180.531      157            135.5979     
    116200   300.96647      1592.4925     -2478.2965     -1930.5533      1682.2912      9606.6033     -5228.4415     -59.110707      1.0304321      49257.017      157            130.00501    
    116300   296.95665      1668.655      -2446.5356     -1880.8088      1711.767       9605.166      -5259.6671     -61.266367      1.0284442      49352.228      157            132.81715    
    116400   294.35203      1503.5301     -2477.3669     -1982.3739      1684.6805      9538.4067     -5206.7324     -53.083869      1.0279541      49375.757      157            138.10898    
    116500   295.19716      1443.1064     -2488.919      -1983.9358      1704.438       9500.3052     -5229.9011     -58.880843      1.0284089      49353.921      157            132.2429     
    116600   296.33448      1626.1001     -2442.0965     -1898.7575      1720.1931      9582.9543     -5276.632      -59.561352      1.0283225      49358.071      157            87.160455    
    116700   303.44278      1402.0123     -2467.48       -2067.0792      1700.0807      9597.6461     -5305.2681     -55.887086      1.0274254      49401.167      157            90.614417    
    116800   301.97934      1528.466      -2461.097      -1961.2351      1726.9922      9533.2111     -5250.3556     -59.049622      1.0269393      49424.553      157            90.854339    
    116900   298.97307      1702.8564     -2497.6833     -1821.449       1737.4924      9576.509      -5231.2821     -60.730546      1.0242793      49552.903      157            91.087101    
    117000   300.21843      1512.4829     -2493.3785     -2014.9949      1697.5082      9597.052      -5212.7717     -60.932127      1.0231804      49606.123      157            83.059829    
    117100   306.53994      1250.3142     -2441.3261     -2282.6066      1690.875       9574.6294     -5228.1934     -63.064139      1.0236548      49583.134      157            129.24808    
    117200   306.47918      1545.1216     -2473.0444     -2015.7467      1706.3361      9701.7933     -5311.455      -62.761729      1.0228785      49620.765      157            127.07463    
    117300   299.22575      1552.4639     -2469.178      -2039.1649      1715.35        9613.2656     -5210.467      -57.341759      1.0222668      49650.456      157            133.71934    
    117400   301.33589      1318.5891     -2456.3339     -2131.321       1673.6384      9526.4388     -5238.2072     -55.62611       1.0224839      49639.915      157            119.47027    
    117500   294.89539      1580.1309     -2465.3898     -1958.0568      1717.6332      9620.7087     -5280.97       -53.794373      1.0225807      49635.218      157            120.9078     
    117600   300.44066      1514.8632     -2438.547      -2028.54        1726.4931      9571.561      -5252.7999     -63.303933      1.0240314      49564.898      157            89.663432    
    117700   302.75656      1733.8955     -2475.7404     -1837.3534      1692.2043      9613.7609     -5202.8305     -56.145363      1.0239635      49568.185      157            87.631957    
    117800   302.70001      1506.9901     -2443.1222     -1968.6064      1670.0925      9570.3583     -5264.1833     -57.548879      1.0249505      49520.456      157            85.339345    
    117900   295.68758      1668.07       -2455.2873     -1813.8705      1706.0451      9563.1461     -5274.6182     -57.34528       1.0274269      49401.097      157            77.402984    
    118000   294.66748      1668.196      -2469.5594     -1853.2741      1690.9545      9551.6152     -5198.5329     -53.007325      1.0276752      49389.158      157            83.453936    
    118100   303.74478      1600.5942     -2480.8503     -1876.9507      1708.2053      9532.1992     -5226.559      -55.450234      1.0272744      49408.427      157            138.0598     
    118200   301.51909      1536.1322     -2457.6892     -2009.3908      1687.4818      9629.7697     -5257.6245     -56.414784      1.0263546      49452.708      157            140.81939    
    118300   301.59213      1660.1133     -2446.258      -1874.5392      1732.0428      9564.948      -5258.5771     -57.503181      1.0268461      49429.036      157            113.34369    
    118400   292.78872      1712.8708     -2468.7671     -1829.1817      1752.9381      9530.9576     -5213.6838     -59.392242      1.0264873      49446.312      157            134.75375    
    118500   296.71181      1660.0902     -2484.3598     -1799.6106      1751.8391      9492.6562     -5234.2702     -66.164599      1.026172       49461.509      157            108.47679    
    118600   293.75178      103170.49      160.67999     -1839.4751      100583.5       9589.3819     -5263.6842     -59.915288      1.0258166      49478.644      158            90.953794    
    118700   302.47453      1409.6614     -2531.2017     -1997.9675      1697.1948      9558.9915     -5261.2657     -56.089857      1.0691569      47472.931      158            85.086506    
    118800   301.58348      1382.9473     -2527.4501     -1944.6095      1695.9633      9525.9089     -5307.7659     -59.099395      1.0681139      47519.288      158            79.909409    
    118900   298.22221      1273.4279     -2537.4467     -2032.2913      1660.5253      9496.6539     -5251.5336     -62.479632      1.0646959      47671.84       158            81.911881    
    119000   296.65949      1276.5912     -2535.9718     -2031.1642      1622.2084      9560.4374     -5277.9491     -60.969481      1.0613372      47822.701      158            81.130623    
    119100   298.60278      1435.9976     -2512.4577     -1928.5097      1720.8584      9454.2657     -5242.8136     -55.345519      1.0579589      47975.411      158            127.20325    
    119200   302.9388       1478.7684     -2525.6818     -1927.5214      1684.7169      9563.1298     -5256.4663     -59.40876       1.0549462      48112.42       158            132.48139    
    119300   303.16942      1133.1447     -2500.6087     -2256.2997      1689.275       9513.2077     -5254.8018     -57.627852      1.0518843      48252.466      158            138.35728    
    119400   296.64506      1273.2873     -2523.7818     -2144.3283      1702.2592      9515.6375     -5213.5831     -62.916155      1.0490611      48382.323      158            128.83151    
    119500   297.14525      1362.6892     -2495.7944     -2007.7122      1661.7628      9573.1703     -5305.8107     -62.926605      1.0460323      48522.415      158            132.51686    
    119600   297.35354      1519.1869     -2523.3101     -1861.1724      1692.4349      9490.6546     -5219.6452     -59.775052      1.0434328      48643.3        158            86.53972     
    119700   302.70439      1592.713      -2481.9893     -1845.4391      1702.1344      9479.2371     -5200.7414     -60.488829      1.0422481      48698.59       158            86.851808    
    119800   306.66428      1269.6446     -2515.6234     -2118.3355      1711.8183      9485.09       -5231.9424     -61.362493      1.0406972      48771.166      158            90.742789    
    119900   300.45599      1472.5401     -2457.9836     -1921.4057      1702.4193      9411.7494     -5202.7718     -59.467482      1.0391624      48843.199      158            90.204925    
    120000   297.68642      1478.5055     -2496.165      -1917.0106      1710.0407      9447.4615     -5207.2596     -58.561526      1.0368906      48950.212      158            78.935511    
    120100   297.66549      1426.2756     -2517.0022     -1960.17        1740.7971      9481.0349     -5262.2825     -56.10176       1.0347652      49050.753      158            125.13752    
    120200   303.41246      21374.108      16.765178     -2010.0003      19197.797      9378.0781     -5156.3566     -52.176071      1.0325456      49156.198      159            115.89612    
    120300   306.44611      1424.0556     -2481.9334     -1885.4784      1670.1542      9391.8812     -5217.9562     -52.611764      1.0439266      48620.29       159            137.6656     
    120400   299.65402      1275.3894     -2456.6559     -2086.5953      1709.4815      9347.8254     -5176.2306     -62.435644      1.0448421      48577.69       159            131.83228    
    120500   296.09723      1177.6223     -2493.3227     -2102.3986      1709.2599      9411.3013     -5289.6762     -57.541481      1.042119       48704.625      159            137.26927    
    120600   300.64064      1115.7937     -2499.5273     -2095.7749      1714.4317      9326.3596     -5272.1995     -57.495873      1.0387954      48860.451      159            79.602583    
    120700   299.39788      1498.9579     -2508.6431     -1798.7083      1703.3294      9474.6232     -5313.2992     -58.344045      1.0373298      48929.484      159            84.98199     
    120800   301.56649      1606.3924     -2473.3816     -1749.219       1728.213       9430.8266     -5274.2614     -55.785191      1.0354526      49018.191      159            81.285232    
    120900   302.6996       1370.8625     -2476.0952     -1996.0663      1742.0496      9363.4328     -5205.2676     -57.190928      1.032783       49144.898      159            87.677483    
    121000   301.31811      1341.4264     -2449.6969     -1945.44        1705.2939      9325.7547     -5232.882      -61.603466      1.0316477      49198.979      159            83.432178    
    121100   299.386        1074.3368     -2480.2463     -2135.3222      1666.3164      9319.8888     -5238.5193     -57.780585      1.0301591      49270.07       159            136.29511    
    121200   298.65807      1316.1323     -2475.2663     -1914.5329      1725.0122      9273.005      -5232.7999     -59.285851      1.0311685      49221.843      159            138.3488     
    121300   299.07112      1392.0275     -2453.4197     -1942.8101      1718.4367      9301.2394     -5173.8978     -57.520879      1.0307954      49239.656      159            126.58694    
    121400   298.30405      1598.2768     -2465.7379     -1819.9518      1782.013       9496.8138     -5336.9181     -57.942194      1.0296485      49294.503      159            133.85598    
    121500   302.56224      1296.1244     -2479.5094     -2021.2859      1689.054       9435.7832     -5270.8956     -57.021808      1.0278561      49380.466      159            135.69072    
    121600   302.52357      1406.8373     -2460.7855     -1843.3165      1689.4153      9317.4602     -5235.8674     -60.06884       1.0271616      49413.855      159            90.707478    
    121700   296.47287      1541.4287     -2483.6815     -1735.1125      1734.9156      9318.3181     -5234.3691     -58.641921      1.0268104      49430.753      159            88.325381    
    121800   294.98809      1487.7764     -2463.6384     -1804.5525      1719.2625      9352.3794     -5261.1208     -54.553824      1.0260638      49466.723      159            87.679481    
    121900   299.14573      1327.7693     -2515.1357     -1951.676       1695.3933      9420.6204     -5260.1818     -61.250836      1.0262368      49458.385      159            88.400928    
    122000   299.96531      1472.8073     -2483.6595     -1820.9198      1767.1147      9304.3956     -5235.1537     -58.970081      1.026475       49446.907      159            87.671992    
    122100   298.96573      1479.8352     -2461.7164     -1868.3127      1756.3178      9449.0231     -5332.6383     -62.838407      1.0280044      49373.341      159            130.81348    
    122200   301.29852      1315.3271     -2482.3677     -1983.7602      1709.5542      9388.7802     -5259.9098     -56.969611      1.025424       49497.589      159            141.48175    
    122300   296.62356      1430.2215     -2467.8746     -1882.4586      1757.8082      9350.5441     -5268.8058     -58.991664      1.0264705      49447.126      159            127.97698    
    122400   297.61962      1380.3412     -2484.8628     -1847.0935      1708.8137      9373.8318     -5313.7935     -56.554496      1.0264936      49446.01       159            128.10338    
    122500   299.35973      1269.4286     -2441.8793     -1974.2569      1663.7523      9345.3576     -5266.6444     -56.900678      1.0263236      49454.202      159            126.79572    
    122600   306.54111      1363.3763     -2441.164      -1896.8622      1730.5297      9293.6778     -5268.5353     -54.269825      1.0251291      49511.826      159            86.81316     
    122700   301.00597      1525.0251     -2476.8716     -1837.7042      1757.9026      9351.6119     -5212.8172     -57.096246      1.0244242      49545.894      159            82.268111    
    122800   300.35911      1331.9251     -2483.1829     -1998.0733      1783.5019      9335.6867     -5247.0608     -58.946498      1.0256563      49486.377      159            83.177707    
    122900   301.78524      1473.7081     -2485.2262     -1766.868       1693.0754      9355.4204     -5262.4536     -60.239986      1.0269587      49423.616      159            82.477727    
    123000   298.86152      1317.2999     -2475.1206     -1830.9627      1671.0539      9233.5266     -5227.1819     -54.015471      1.0259374      49472.818      159            81.323049    
    123100   294.56737      1285.0822     -2473.0858     -1879.9052      1699.341       9270.1921     -5277.5665     -53.89335       1.0239131      49570.625      159            122.98262    
    123200   302.11807      1324.0105     -2450.6329     -1921.6264      1697.8714      9342.5661     -5292.9497     -51.217943      1.0221656      49655.373      159            82.147547    
    123300   301.88231      1481.1811     -2505.2689     -1839.4138      1771.8282      9412.9911     -5301.3441     -57.611413      1.0214896      49688.232      159            84.343885    
    123400   303.35338      1466.9525     -2486.4507     -1803.5216      1717.5533      9367.9635     -5274.7801     -53.811901      1.0237423      49578.897      159            82.539292    
    123500   305.69983      1418.5277     -2483.954      -1773.5352      1693.5186      9329.3185     -5290.3659     -56.454294      1.0248262      49526.459      159            111.99823    
    123600   299.88138      1364.9885     -2428.1596     -1854.7365      1696.7316      9255.5644     -5254.3794     -50.032034      1.0258261      49478.185      159            81.467542    
    123700   295.3397       1429.8196     -2488.8438     -1829.7302      1626.4767      9445.8365     -5268.6918     -55.227845      1.0258173      49478.611      159            86.23049     
    123800   300.24045      1479.1957     -2446.6585     -1858.96        1719.6944      9380.8689     -5255.9638     -59.785165      1.0262279      49458.814      159            89.263507    
    123900   304.62554      1358.7381     -2460.3973     -1963.9437      1716.2211      9412.1932     -5290.1186     -55.216641      1.0248638      49524.641      159            88.542268    
    124000   301.18764      1388.2122     -2471.863      -1917.7939      1682.5965      9379.395      -5229.8928     -54.229548      1.0243294      49550.478      159            88.938755    
    124100   298.65926      1615.9938     -2457.0935     -1641.0506      1673.139       9454.0534     -5352.5528     -60.501555      1.0248969      49523.044      159            137.385      
    124200   297.86259      1223.7095     -2487.8168     -2031.6554      1673.9876      9443.2191     -5312.7222     -61.302816      1.0258938      49474.92       159            139.36176    
    124300   296.91684      1382.0449     -2460.4316     -1909.3523      1696.0283      9354.4608     -5238.1081     -60.552209      1.0262492      49457.786      159            134.49071    
    124400   297.6437       1632.6358     -2470.1281     -1697.446       1688.6361      9444.8853     -5270.8509     -62.460549      1.0259161      49473.844      159            137.91915    
    124500   297.02347      1453.9794     -2463.7217     -1889.3783      1766.8061      9381.6191     -5284.3805     -56.965283      1.0266764      49437.208      159            139.97639    
