LAMMPS (22 Dec 2022)
WARNING: Using I/O redirection is unreliable with parallel runs. Better to use the -in switch to read input files. (../lammps.cpp:531)
Reading data file ...
  orthogonal box = (0 0 0) to (46.421867 46.421867 46.421867)
  1 by 2 by 3 MPI processor grid
  reading atoms ...
  3976 atoms
  scanning bonds ...
  5 = max bonds/atom
  scanning angles ...
  18 = max angles/atom
  scanning dihedrals ...
  30 = max dihedrals/atom
  scanning impropers ...
  16 = max impropers/atom
  reading bonds ...
  4628 bonds
  reading angles ...
  10230 angles
  reading dihedrals ...
  18834 dihedrals
  reading impropers ...
  6600 impropers
Finding 1-2 1-3 1-4 neighbors ...
  special bond factors lj:    0        0        1       
  special bond factors coul:  0        0        1       
     4 = max # of 1-2 neighbors
     9 = max # of 1-3 neighbors
    25 = max # of special neighbors
  special bonds CPU = 0.000 seconds
  read_data CPU = 0.100 seconds
PPPM initialization ...
  using 12-bit tables for long-range coulomb (../kspace.cpp:342)
  G vector (1/distance) = 0.22758774
  grid = 16 16 16
  stencil order = 5
  estimated absolute RMS force accuracy = 0.0035310216
  estimated relative force accuracy = 1.0633567e-05
  using double precision KISS FFT
  3d grid and FFT values/proc = 3003 768
Generated 28 of 28 mixed pair_coeff terms from sixthpower/geometric mixing rule
Neighbor list info ...
  update: every = 1 steps, delay = 0 steps, check = yes
  max neighbors/atom: 2000, page size: 100000
  master list distance cutoff = 12
  ghost atom cutoff = 12
  binsize = 6, bins = 8 8 8
  1 neighbor lists, perpetual/occasional/extra = 1 0 0
  (1) pair lj/class2/coul/long, perpetual
      attributes: half, newton on
      pair build: half/bin/newton
      stencil: half/bin/3d
      bin: standard
Setting up cg style minimization ...
  Unit style    : real
  Current step  : 0
Per MPI rank memory allocation (min/avg/max) = 29.23 | 29.56 | 29.63 Mbytes
   Step          Temp          E_pair         E_mol          TotEng         Press     
         0   0              2890.5397      46758.966      49649.506      4893.3503    
         6   0              2890.2464      46751.402      49641.648      4883.8648    
Loop time of 0.813895 on 6 procs for 6 steps with 3976 atoms

99.0% CPU use with 6 MPI tasks x no OpenMP threads

Minimization stats:
  Stopping criterion = energy tolerance
  Energy initial, next-to-last, final = 
      49649.5060268284   49641.7839334328   49641.6479240534
  Force two-norm initial, final = 10306.633 16724.481
  Force max component initial, final = 4198.1648 7164.2113
  Final line search alpha, max atom move = 2.866449e-07 0.0020535846
  Iterations, force evaluations = 6 92

MPI task timing breakdown:
Section |  min time  |  avg time  |  max time  |%varavg| %total
---------------------------------------------------------------
Pair    | 0.10436    | 0.17696    | 0.20001    |   8.0 | 21.74
Bond    | 0.32736    | 0.4306     | 0.52642    |   9.8 | 52.91
Kspace  | 0.073915   | 0.19184    | 0.3675     |  21.3 | 23.57
Neigh   | 0          | 0          | 0          |   0.0 |  0.00
Comm    | 0.010163   | 0.010619   | 0.011112   |   0.4 |  1.30
Output  | 0          | 0          | 0          |   0.0 |  0.00
Modify  | 0          | 0          | 0          |   0.0 |  0.00
Other   |            | 0.003871   |            |       |  0.48

Nlocal:        662.667 ave         786 max         509 min
Histogram: 1 0 0 0 2 0 1 0 1 1
Nghost:           4587 ave        4866 max        4309 min
Histogram: 1 0 1 1 0 1 0 0 1 1
Neighs:         102820 ave      117180 max       61891 min
Histogram: 1 0 0 0 0 0 0 2 0 3

Total # of neighbors = 616923
Ave neighs/atom = 155.16172
Ave special neighs/atom = 7
Neighbor list builds = 0
Dangerous builds = 0
PPPM initialization ...
  using 12-bit tables for long-range coulomb (../kspace.cpp:342)
  G vector (1/distance) = 0.22758774
  grid = 16 16 16
  stencil order = 5
  estimated absolute RMS force accuracy = 0.0035310216
  estimated relative force accuracy = 1.0633567e-05
  using double precision KISS FFT
  3d grid and FFT values/proc = 3003 768
Generated 28 of 28 mixed pair_coeff terms from sixthpower/geometric mixing rule
Setting up Verlet run ...
  Unit style    : real
  Current step  : 6
  Time step     : 1
Per MPI rank memory allocation (min/avg/max) = 28.11 | 28.43 | 28.51 Mbytes
   Step          Temp          PotEng         E_vdwl         E_coul         E_bond        E_angle        E_dihed        E_impro        Density         Volume    
         6   0              49641.648      2674.9241      1940.754       4691.3055      47859.574     -5668.3373     -131.14018      0.44999999     100038.64    
         7   159.62845      49981.495      2672.4941      1940.645       4484.9897      47827.499     -5086.8112     -131.90686      0.44999999     100038.64    
         8   288.44363      49578.176      2695.9625      1940.4549      4194.7382      47774.243     -5169.8722     -131.98131      0.44999999     100038.64    
         9   323.08637      49429.768      2736.8602      1940.0385      4154.9362      47650.851     -5195.1367     -132.47999      0.44999999     100038.64    
        10   312.97508      49551.645      2765.3851      1939.4698      4435.8304      47498.702     -5229.5502     -132.95656      0.44999999     100038.64    
        11   294.43974      49753.052      2781.9108      1938.8298      4736.1133      47365.585     -5210.5272     -133.66946      0.44999999     100038.64    
        12   297.634        49665.475      2790.0122      1938.1558      4702.316       47284.599     -5190.1207     -134.36661      0.44999999     100038.64    
        13   320.36939      49336.601      2795.3837      1937.3303      4369.8031      47270.325     -5176.067      -135.0991       0.44999999     100038.64    
        14   335.49638      49080.308      2798.6557      1936.6531      4094.23        47318.511     -5206.7614     -135.95426      0.44999999     100038.64    
        15   326.45367      49141.373      2794.1676      1936.087       4122.0742      47401.858     -5251.2817     -136.57629      0.44999999     100038.64    
        16   303.82437      49393.438      2776.5138      1935.5972      4351.0258      47492.264     -5300.3063     -136.77325      0.44999999     100038.64    
        17   293.33919      49504.639      2741.3548      1935.2896      4476.3519      47558.575     -5345.5919     -136.5134       0.44999999     100038.64    
        18   307.07241      49294.713      2700.4937      1934.981       4326.8044      47577.652     -5384.4941     -135.94088      0.44999999     100038.64    
        19   334.52144      48913.467      2659.356       1934.7578      4068.5633      47531.779     -5421.0247     -135.17336      0.44999999     100038.64    
        20   351.43599      48667.529      2619.1594      1934.5661      3968.5196      47420.822     -5416.3555     -134.35518      0.44999999     100038.64    
        21   348.42987      48666.301      2582.2403      1934.4254      4111.6699      47262.032     -5365.5898     -133.58023      0.44999999     100038.64    
        22   346.30831      48744.04       2542.8277      1934.1321      4297.3014      47088.416     -5260.3917     -133.28371      0.44999999     100038.64    
        23   365.27917      48508.434      2496.1219      1933.6327      4284.0562      46937.237     -5283.1077     -134.50246      0.44999999     100038.64    
        24   386.72941      48175.889      2443.1956      1933.0177      4087.4713      46819.827     -5246.5293     -136.07883      0.44999999     100038.64    
        25   400.15994      47943.995      2394.1988      1932.3526      3936.935       46739.274     -5196.12       -137.64366      0.44999999     100038.64    
        26   394.38335      47947.21       2357.8538      1931.64        3980.2956      46689.151     -5147.6506     -139.09051      0.44999999     100038.64    
        27   379.89534      48059.597      2329.7884      1931.0533      4138.125       46662.796     -5137.1972     -139.98269      0.44999999     100038.64    
        28   373.50794      48091.005      2301.4672      1930.7659      4189.7031      46643.786     -5109.587      -140.12033      0.44999999     100038.64    
        29   387.12539      47879.387      2270.4222      1930.6968      4015.3413      46621.335     -5093.2414     -140.13148      0.44999999     100038.64    
        30   408.38691      47542.789      2236.1349      1930.751       3750.6315      46585.154     -5095.2112     -139.60371      0.44999999     100038.64    
        31   420.49165      47312.865      2209.5384      1930.7971      3617.0332      46524.005     -5104.5706     -138.85835      0.44999999     100038.64    
        32   417.77694      47282.086      2191.856       1930.8311      3697.0582      46442.834     -5117.3157     -138.10717      0.44999999     100038.64    
        33   410.758        47323.068      2180.4464      1930.5291      3855.0088      46356.749     -5137.1047     -137.55134      0.44999999     100038.64    
        34   412.91942      47246.266      2180.48        1929.7864      3886.0268      46274.372     -5162.4714     -137.01711      0.44999999     100038.64    
        35   424.59028      47085.078      2183.8473      1928.8474      3766.5826      46205.922     -5138.9291     -136.40987      0.44999999     100038.64    
        36   437.69877      46874.38       2175.9114      1927.7981      3673.4724      46155.163     -5196.9489     -136.35934      0.44999999     100038.64    
        37   432.97536      46876.206      2160.7834      1926.8531      3751.965       46120.551     -5223.1914     -136.22708      0.44999999     100038.64    
        38   415.98401      47034.07       2148.5821      1926.1418      3948.8576      46100.983     -5230.3684     -135.71721      0.44999999     100038.64    
        39   402.53707      47157.513      2143.2103      1925.6916      4084.3926      46096.771     -5232.9216     -135.31452      0.44999999     100038.64    
        40   405.76394      47132.662      2126.7748      1925.4974      4036.7127      46101.211     -5198.1125     -135.19234      0.44999999     100038.64    
        41   426.435        46899.605      2095.8711      1925.2814      3871.5607      46108.186     -5241.0919     -136.04267      0.44999999     100038.64    
        42   434.54432      46756.387      2061.3265      1925.0778      3777.6162      46109.799     -5256.2703     -137.03737      0.44999999     100038.64    
        43   430.41814      46757.772      2036.4231      1924.793       3823.1387      46102.011     -5266.2135     -138.26004      0.44999999     100038.64    
        44   420.2164       46818.417      2027.8521      1924.4445      3920.2032      46088.046     -5278.3705     -139.62833      0.44999999     100038.64    
        45   418.30492      46798.63       2027.927       1924.2314      3912.7556      46069.951     -5270.6344     -141.42923      0.44999999     100038.64    
        46   429.0126       46626.872      2028.7638      1924.0892      3770.5254      46049.384     -5278.0946     -143.53286      0.44999999     100038.64    
        47   440.26471      46432.776      2027.6613      1923.9792      3628.4754      46021.43      -5298.7914     -145.60536      0.44999999     100038.64    
        48   440.39333      46379.571      2023.0926      1924.0592      3615.0777      45993.332     -5303.8727     -147.59063      0.44999999     100038.64    
        49   432.46858      46434.267      2015.2695      1924.2434      3709.3183      45965.683     -5306.4229     -149.12852      0.44999999     100038.64    
        50   425.93928      46480.759      2005.9668      1924.4201      3793.8956      45941.604     -5309.8545     -150.39887      0.44999999     100038.64    
        51   427.58386      46408.482      1996.1448      1924.4104      3757.0452      45927.747     -5320.6064     -151.18407      0.44999999     100038.64    
        52   434.03505      46265.365      1982.3229      1924.2776      3635.5884      45926.143     -5326.2281     -151.4845       0.44999999     100038.64    
        53   435.73708      46185.028      1969.0322      1923.9553      3551.2258      45927.998     -5310.5121     -151.2638       0.44999999     100038.64    
        54   429.68726      46218.346      1958.5606      1923.3772      3576.8094      45931.678     -5296.0375     -150.52087      0.44999999     100038.64    
        55   421.00294      46291.557      1947.6406      1922.6962      3647.7352      45934.848     -5286.6007     -149.18393      0.44999999     100038.64    
        56   418.3229       46292.222      1930.3402      1921.9045      3651.3727      45937.783     -5275.9862     -147.62194      0.44999999     100038.64    
        57   422.67607      46196.894      1907.9397      1921.0427      3580.2035      45933.017     -5273.6064     -146.18396      0.44999999     100038.64    
        58   428.23664      46087.265      1885.2136      1920.1734      3520.5638      45911.45      -5279.802      -144.88938      0.44999999     100038.64    
        59   430.61924      46027.546      1867.4322      1919.221       3534.9016      45873.513     -5298.066      -144.08343      0.44999999     100038.64    
        60   429.71974      46000.055      1854.0383      1918.2055      3604.2717      45825.121     -5332.8791     -143.37829      0.44999999     100038.64    
        61   427.81156      45982.035      1844.2452      1917.3403      3670.5584      45777.475     -5359.4433     -142.88122      0.44999999     100038.64    
        62   429.65696      45908.003      1837.6245      1916.6528      3671.3204      45740.212     -5389.8526     -142.77808      0.44999999     100038.64    
        63   434.10479      45797.26       1835.865       1916.1337      3614.2653      45715.757     -5416.9271     -142.76479      0.44999999     100038.64    
        64   434.90821      45726.134      1836.0437      1915.8214      3573.5012      45704.767     -5436.2921     -142.7624       0.44999999     100038.64    
        65   431.39875      45716.972      1836.1117      1915.7509      3591.5726      45704.941     -5463.5746     -143.02185      0.44999999     100038.64    
        66   425.22904      45746.78       1830.602       1915.8776      3631.5809      45714.792     -5477.6569     -143.7483       0.44999999     100038.64    
        67   422.83591      45712.21       1814.6243      1916.1192      3613.2045      45727.345     -5490.2212     -144.35069      0.44999999     100038.64    
        68   428.83475      45580.005      1787.0394      1916.3384      3522.1211      45733.654     -5510.2382     -144.56846      0.44999999     100038.64    
        69   436.64585      45428.567      1751.36        1916.5706      3426.3353      45722.826     -5520.0143     -144.32438      0.44999999     100038.64    
        70   440.40126      45332.406      1714.2393      1916.8242      3388.3051      45695.372     -5514.3423     -143.93662      0.44999999     100038.64    
        71   440.61317      45284.764      1681.8751      1917.035       3408.5321      45656.045     -5511.4721     -143.26128      0.44999999     100038.64    
        72   441.66434      45231.048      1657.7643      1917.2761      3432.3137      45612.725     -5522.5127     -142.53817      0.44999999     100038.64    
        73   445.83613      45141.942      1640.9813      1917.5392      3410.8562      45568.544     -5530.2694     -141.72058      0.44999999     100038.64    
        74   449.1261       45055.123      1627.3011      1917.8367      3362.4386      45523.766     -5511.552      -140.66578      0.44999999     100038.64    
        75   449.44125      44998.344      1612.7076      1918.23        3346.0599      45477.244     -5492.5967     -139.30868      0.44999999     100038.64    
        76   444.97583      44990.954      1597.0224      1918.6419      3382.6142      45428.61      -5474.3265     -137.63177      0.44999999     100038.64    
        77   439.36187      44985.79       1579.6597      1919.0092      3426.5379      45379.721     -5459.5677     -135.63166      0.44999999     100038.64    
        78   436.56098      44963.139      1562.9801      1919.3862      3439.6309      45330.187     -5431.6        -133.53864      0.44999999     100038.64    
        79   437.67326      44895.695      1549.7693      1919.6628      3416.434       45287.994     -5422.2835     -132.00751      0.44999999     100038.64    
        80   435.44144      44861.49       1538.8838      1919.8126      3393.3853      45239.284     -5375.7292     -130.31278      0.44999999     100038.64    
        81   435.79169      44821.79       1529.1746      1919.8344      3395.1945      45188.227     -5358.1697     -128.64705      0.44999999     100038.64    
        82   436.46776      44788.857      1516.1001      1919.7129      3414.1311      45138.134     -5348.1484     -127.21852      0.44999999     100038.64    
        83   437.89513      44737.819      1497.9759      1919.4369      3410.025       45092.413     -5332.6822     -125.41228      0.44999999     100038.64    
        84   442.99222      44629.237      1474.6873      1919.0922      3378.5383      45056.659     -5352.2097     -123.45939      0.44999999     100038.64    
        85   446.74418      44558.638      1447.8128      1918.7028      3347.7566      45031.692     -5342.0064     -121.11874      0.44999999     100038.64    
        86   447.6632       44506.625      1423.5933      1918.3061      3355.5236      45022.675     -5370.7036     -118.4897       0.44999999     100038.64    
        87   443.42296      44521.449      1404.5186      1917.8787      3390.5379      45025.392     -5376.6872     -115.85242      0.44999999     100038.64    
        88   439.27597      44536.621      1387.9458      1917.5001      3415.7242      45038.201     -5384.7319     -113.65726      0.44999999     100038.64    
        89   437.76507      44516.648      1373.0815      1917.2565      3399.4976      45057.141     -5393.9115     -112.07293      0.44999999     100038.64    
        90   436.51331      44492.481      1355.2131      1917.0414      3365.4578      45069.437     -5379.4639     -110.91489      0.44999999     100038.64    
        91   436.22986      44458.775      1339.5341      1917.0014      3357.0782      45067.672     -5387.9632     -110.29742      0.44999999     100038.64    
        92   432.2898       44486.425      1326.3982      1917.1212      3384.3606      45047.288     -5354.3245     -110.17529      0.44999999     100038.64    
        93   429.43787      44483.667      1317.7145      1917.1663      3413.5952      45016.603     -5346.6343     -110.49876      0.44999999     100038.64    
        94   430.4487       44423.617      1313.2725      1917.2236      3402.3243      44981.408     -5355.5091     -110.78897      0.44999999     100038.64    
        95   431.65587      44385.183      1310.3447      1917.3749      3354.2371      44951.724     -5313.0591     -111.14001      0.44999999     100038.64    
        96   435.79609      44302.78       1306.6003      1917.5825      3316.6839      44932.803     -5334.7017     -111.94703      0.44999999     100038.64    
        97   433.72585      44296.31       1301.5454      1917.9577      3312.8448      44922.409     -5321.4863     -112.81751      0.44999999     100038.64    
        98   428.15016      44335.822      1297.0786      1918.484       3334.9175      44919.279     -5296.1155     -113.79109      0.44999999     100038.64    
        99   425.83486      44340.272      1292.8765      1919.0345      3330.1165      44921.883     -5285.1865     -114.54456      0.44999999     100038.64    
       100   427.0486       44289.87       1290.0493      1919.6141      3267.5428      44926.916     -5275.3407     -115.1039       0.44999999     100038.64    
       101   429.52321      44227.188      1291.457       1920.2268      3193.1904      44928.858     -5266.8405     -115.9485       0.44999999     100038.64    
       102   430.51196      44185.719      1294.872       1920.8865      3151.8338      44925.964     -5267.3381     -116.75299      0.44999999     100038.64    
       103   428.30313      44173.423      1298.2833      1921.3891      3144.0742      44923.183     -5271.9904     -117.72456      0.44999999     100038.64    
       104   428.98682      44130.124      1297.5482      1921.746       3126.0823      44912.814     -5285.5057     -118.67093      0.44999999     100038.64    
       105   432.58088      44062.586      1292.0884      1921.7941      3081.8681      44900.83      -5290.3374     -119.613        0.44999999     100038.64    
       106   436.55348      43995.676      1280.6933      1921.5954      3040.4352      44890.069     -5292.431      -120.48586      0.44999999     100038.64    
       107   441.48422      43924.249      1262.7134      1921.1066      3027.4372      44883.814     -5325.2302     -121.24853      0.44999999     100038.64    
       108   441.44833      43936.785      1244.4938      1920.5333      3047.2101      44882.628     -5311.7361     -121.89626      0.44999999     100038.64    
       109   437.89076      44090.483      1231.0833      1920.0108      3062.9287      44887.91      -5163.8471     -123.0618       0.44999999     100038.64    
       110   438.09317      44057.694      1221.2647      1919.6249      3069.8851      44897.424     -5201.0984     -124.77727      0.44999999     100038.64    
       111   438.71375      44024.144      1210.4441      1919.3364      3062.9694      44903.238     -5220.5041     -126.62795      0.44999999     100038.64    
       112   442.4231       43950.552      1195.2238      1919.1832      3038.5004      44897.178     -5246.2154     -128.50754      0.44999999     100038.64    
       113   444.52057      43886.01       1178.4196      1919.026       3028.6852      44875.168     -5259.7838     -130.60736      0.44999999     100038.64    
       114   444.03332      43859.064      1162.617       1918.9039      3045.0873      44838.082     -5247.7062     -132.94971      0.44999999     100038.64    
       115   443.82394      43817.939      1150.5315      1918.7218      3051.4062      44790.064     -5232.7183     -135.05299      0.44999999     100038.64    
       116   445.30537      43756.836      1143.9271      1918.527       3037.0441      44736.571     -5217.4447     -136.78419      0.44999999     100038.64    
       117   446.99318      43696.833      1143.3565      1918.4204      3014.6707      44688.574     -5205.0898     -138.13826      0.44999999     100038.64    
       118   445.89171      43663.982      1145.9794      1918.2951      3007.974       44653.124     -5197.2073     -139.31651      0.44999999     100038.64    
       119   443.54748      43657.308      1148.699       1918.3879      3015.5001      44627.384     -5187.6111     -140.3261       0.44999999     100038.64    
       120   440.63645      43641.384      1147.8084      1918.7462      3020.5745      44608.98      -5189.2575     -140.92145      0.44999999     100038.64    
       121   437.0863       43642.955      1144.008       1919.3078      3018.5189      44596.892     -5170.2654     -141.18448      0.44999999     100038.64    
       122   435.36864      43617.737      1140.4872      1919.9864      3012.0571      44596.958     -5186.1008     -141.55484      0.44999999     100038.64    
       123   431.56619      43608.232      1133.3118      1920.6805      3014.689       44598.016     -5192.4734     -142.08157      0.44999999     100038.64    
       124   430.29307      43587.597      1121.5024      1921.2564      3024.0446      44594.061     -5206.8144     -142.68437      0.44999999     100038.64    
       125   435.97272      43614.132      1103.8993      1921.7641      3043.8315      44586.383     -5174.8073     -143.29006      0.44999999     100038.64    
       126   454.09195      43571.801      1085.1373      1922.1552      3093.0875      44583.202     -5243.0854     -145.17775      0.44999999     100038.64    
       127   448.17853      43591.01       1065.7677      1922.3586      3133.822       44578.621     -5239.1834     -146.94213      0.44999999     100038.64    
       128   441.51027      43621.089      1048.2188      1922.5662      3175.0522      44573.363     -5226.2421     -148.49035      0.44999999     100038.64    
       129   437.05626      43650.647      1031.5771      1922.8675      3204.6521      44566.2       -5201.7898     -149.50435      0.44999999     100038.64    
       130   448.37753      43656.257      1016.9676      1923.3754      3215.5797      44571.053     -5197.1405     -150.25684      0.44999999     100038.64    
       131   459.16547      43659.632      1005.9363      1923.8822      3230.3941      44577.94      -5203.537      -151.70568      0.44999999     100038.64    
       132   452.62375      43706.551      999.82272      1924.336       3245.0601      44574.28      -5161.0555     -152.65749      0.44999999     100038.64    
       133   448.3486       43724.425      996.82711      1924.7313      3241.2948      44560.135     -5122.493      -152.9005       0.44999999     100038.64    
       134   446.26785      43708.778      996.34019      1925.0429      3225.1632      44532.814     -5095.0819     -152.38309      0.44999999     100038.64    
       135   445.31815      43763.234      1000.9302      1925.2011      3203.0073      44497.668     -4988.9719     -151.49405      0.44999999     100038.64    
       136   447.86025      43789.817      1015.0701      1925.3341      3169.5453      44453.633     -4900.3503     -150.25248      0.44999999     100038.64    
       137   453.16696      43723.134      1041.2204      1925.4478      3139.5972      44409.326     -4919.7801     -149.44629      0.44999999     100038.64    
       138   451.01614      43706.4        1075.1625      1925.4768      3122.7787      44364.727     -4909.7278     -148.70786      0.44999999     100038.64    
       139   448.05506      43696.829      1105.386       1925.6039      3110.7788      44324.623     -4898.5284     -147.68919      0.44999999     100038.64    
       140   447.31414      43664.274      1122.4417      1925.8413      3083.3809      44290.759     -4888.3072     -146.50536      0.44999999     100038.64    
       141   448.73301      43610.165      1129.413       1926.1218      3043.5976      44260.275     -4880.8543     -145.09878      0.44999999     100038.64    
       142   450.18846      43558.323      1126.9629      1926.4287      3025.2149      44230.155     -4883.8801     -143.36894      0.44999999     100038.64    
       143   450.74236      43509.114      1119.5371      1926.7705      3025.9377      44198.784     -4897.776      -141.12924      0.44999999     100038.64    
       144   451.2452       43448.902      1109.1925      1927.1555      3020.0495      44163.773     -4909.8735     -138.56859      0.44999999     100038.64    
       145   453.0244       43382.67       1100.3372      1927.5038      3007.7721      44128.483     -4922.7536     -136.02243      0.44999999     100038.64    
       146   455.76412      43315.772      1095.2063      1927.8598      3002.0047      44090.26      -4943.6087     -133.45041      0.44999999     100038.64    
       147   457.33153      43256.09       1089.1736      1928.2543      2997.4817      44058.53      -4963.7455     -131.19107      0.44999999     100038.64    
       148   457.32152      43210.865      1079.8006      1928.6089      2996.6417      44036.416     -4978.89       -129.32008      0.44999999     100038.64    
       149   456.85632      43168          1061.0593      1928.7648      2999.4245      44027.54      -4998.2287     -128.12843      0.44999999     100038.64    
       150   457.05277      43112          1033.6905      1928.8922      2989.5444      44031.552     -5021.653      -127.53642      0.44999999     100038.64    
       151   457.94474      43048.636      1006.5704      1928.9918      2957.3826      44044.853     -5038.7984     -127.82669      0.44999999     100038.64    
       152   458.92985      42997.263      987.09119      1929.0056      2922.1921      44067.713     -5057.7523     -128.42151      0.44999999     100038.64    
       153   455.0746       43009.152      975.79715      1929.0283      2925.6516      44089.068     -5058.5328     -129.296        0.44999999     100038.64    
       154   448.39829      43042.417      968.9168       1929.1235      2954.6103      44100.447     -5057.7011     -130.43335      0.44999999     100038.64    
       155   443.44443      43052.322      962.40557      1929.1514      2967.9943      44096.306     -5049.5879     -131.39816      0.44999999     100038.64    
       156   442.32189      43026.452      953.55292      1929.1409      2959.5481      44079.672     -5040.7828     -132.07065      0.44999999     100038.64    
       157   441.66548      42992.489      944.78725      1929.0726      2943.9851      44057.9       -5027.6933     -132.83823      0.44999999     100038.64    
       158   440.69542      42990.057      939.55444      1928.9014      2954.8954      44034.072     -5010.1355     -134.37166      0.44999999     100038.64    
       159   436.14479      42995.049      936.95927      1928.6144      2984.6269      44011.156     -5007.3268     -135.99889      0.44999999     100038.64    
       160   431.02746      42997.365      933.95523      1928.1425      3014.5193      43990.614     -5008.9739     -137.81181      0.44999999     100038.64    
       161   427.35358      42991.773      930.73647      1927.549       3023.3192      43970.919     -4997.9388     -139.66099      0.44999999     100038.64    
       162   426.78716      42972.413      927.48449      1926.8784      3003.2362      43951.883     -4972.4607     -141.42261      0.44999999     100038.64    
       163   428.09215      42916.527      924.65191      1926.3328      2963.0812      43932.857     -4963.9941     -143.2085       0.44999999     100038.64    
       164   431.01245      42857.466      922.8076       1925.9475      2932.395       43912.001     -4967.4386     -145.04197      0.44999999     100038.64    
       165   436.4423       42835.22       920.47552      1925.7842      2925.9482      43889.654     -4956.8093     -146.60249      0.44999999     100038.64    
       166   433.42313      42830.462      918.58912      1925.7663      2931.5463      43867.794     -4941.3263     -148.62057      0.44999999     100038.64    
       167   431.90252      42802.741      915.72459      1925.8534      2930.354       43849.015     -4944.1214     -150.69844      0.44999999     100038.64    
       168   433.71433      42738.444      911.11491      1925.8965      2910.2826      43834.354     -4966.9647     -152.74213      0.44999999     100038.64    
       169   433.49148      42703.859      903.87879      1925.9016      2896.7871      43828.342     -4972.618      -154.85069      0.44999999     100038.64    
       170   429.3598       42714.438      895.61977      1925.8101      2913.1476      43832.597     -4972.3447     -156.75721      0.44999999     100038.64    
       171   425.10973      42730.955      888.18622      1925.7546      2943.1411      43845.736     -4989.8874     -158.31398      0.44999999     100038.64    
       172   422.93759      42724.682      881.45129      1925.8388      2960.7338      43864.987     -5025.5913     -159.11505      0.44999999     100038.64    
       173   422.74595      42719.67       876.06987      1926.0071      2947.9912      43884.436     -5031.9426     -159.34129      0.44999999     100038.64    
       174   422.86367      42685.531      870.73779      1926.3207      2909.0964      43901.092     -5039.4275     -158.8212       0.44999999     100038.64    
       175   422.86311      42650.315      865.389        1926.7831      2875.4084      43913.665     -5049.6097     -157.90536      0.44999999     100038.64    
       176   419.28188      42651.354      863.51787      1927.4396      2881.1262      43916.294     -5057.0016     -156.65419      0.44999999     100038.64    
       177   413.93502      42671.288      866.95598      1928.1037      2908.4988      43909.262     -5062.9775     -155.21461      0.44999999     100038.64    
       178   410.53736      42680.001      873.22227      1928.5934      2920.1411      43891.852     -5056.9178     -153.57895      0.44999999     100038.64    
       179   412.2417       42638.625      882.27964      1928.7428      2890.6425      43864.971     -5052.7361     -151.98251      0.44999999     100038.64    
       180   413.8247       42595.156      890.86702      1928.5676      2849.5598      43831.718     -5032.1304     -150.15746      0.44999999     100038.64    
       181   410.87397      42590.558      896.46888      1928.1595      2839.6025      43799.585     -5001.5542     -148.48376      0.44999999     100038.64    
       182   406.27702      42615.309      896.09963      1927.6232      2869.2541      43776.308     -4983.64       -147.15182      0.44999999     100038.64    
       183   403.46133      42634.461      888.77486      1927.1376      2900.4531      43760.359     -4973.2623     -145.86561      0.44999999     100038.64    
       184   402.70619      42631.698      876.62003      1926.8085      2908.3627      43755.832     -4968.1496     -144.67919      0.44999999     100038.64    
       185   402.69602      42606.455      863.91498      1926.7523      2891.5847      43757.961     -4967.0421     -143.63566      0.44999999     100038.64    
       186   402.01988      42581.091      856.06067      1926.9082      2866.2056      43763.012     -4965.3419     -142.64328      0.44999999     100038.64    
       187   399.07595      42580.833      852.16478      1927.0963      2862.1948      43767.116     -4962.7481     -141.81306      0.44999999     100038.64    
       188   395.08618      42593.222      853.00139      1927.228       2870.9776      43765.534     -4959.3412     -140.91603      0.44999999     100038.64    
       189   393.52761      42593.785      856.64528      1927.1938      2876.4061      43754.522     -4957.3869     -140.22716      0.44999999     100038.64    
       190   394.30062      42566.843      858.72256      1927.0378      2867.4271      43736.415     -4959.277      -139.97822      0.44999999     100038.64    
       191   395.34212      42522.646      858.67352      1926.7555      2848.0141      43716.179     -4963.5147     -139.81456      0.44999999     100038.64    
       192   396.22         42487.371      855.80735      1926.4132      2841.7199      43695.622     -4968.6347     -139.78063      0.44999999     100038.64    
       193   396.67297      42473.88       850.82027      1926.1506      2851.2171      43681.223     -4971.8279     -139.80585      0.44999999     100038.64    
       194   395.692        42472.493      844.73564      1926.1419      2858.9822      43673.244     -4966.9567     -139.68542      0.44999999     100038.64    
       195   393.29662      42468.318      836.97913      1926.3852      2849.2319      43673.907     -4954.743      -139.43657      0.44999999     100038.64    
       196   391.5684       42462.711      828.52336      1926.8252      2830.8235      43677.852     -4937.9151     -139.40181      0.44999999     100038.64    
       197   392.1318       42431.295      820.70983      1927.3307      2822.4205      43682.028     -4958.1295     -139.10306      0.44999999     100038.64    
       198   390.88113      42420.233      814.4118       1927.694       2817.5326      43679.672     -4956.4509     -138.73412      0.44999999     100038.64    
       199   390.10753      42405.301      809.43653      1927.9254      2801.9834      43670.531     -4942.5819     -138.17081      0.44999999     100038.64    
       200   391.32854      42380.625      806.62924      1928.0642      2787.6474      43657.556     -4937.9002     -137.62199      0.44999999     100038.64    
       201   392.14252      42356.357      804.94553      1928.0412      2775.1822      43647.441     -4938.5666     -136.97207      0.44999999     100038.64    
       202   391.84498      42340.895      803.27157      1927.9861      2753.7021      43637.671     -4921.6349     -136.37409      0.44999999     100038.64    
       203   391.85038      42323.499      803.12708      1927.9857      2735.5277      43630.334     -4914.1058     -135.59178      0.44999999     100038.64    
       204   390.25384      42316.384      801.60377      1927.9681      2731.3634      43627.128     -4913.0088     -134.8308       0.44999999     100038.64    
       205   386.78069      42332.025      799.5997       1928.0244      2737.1267      43622.088     -4896.5379     -134.3602       0.44999999     100038.64    
       206   383.93115      42328.899      795.95524      1928.1694      2735.7164      43615.869     -4888.6418     -134.1877       0.44999999     100038.64    
       207   383.15813      42303.991      789.09088      1928.2977      2729.0291      43606.822     -4891.0616     -134.14585      0.44999999     100038.64    
       208   383.59426      42279.359      779.80057      1928.4426      2735.4663      43587.321     -4893.5709     -134.01721      0.44999999     100038.64    
       209   383.40198      42254.793      770.67569      1928.4814      2752.2804      43560.382     -4898.8728     -134.02025      0.44999999     100038.64    
       210   382.89474      42240.032      762.61395      1928.5268      2769.8835      43530.101     -4892.7283     -134.14434      0.44999999     100038.64    
       211   383.77225      42201.912      756.10665      1928.5392      2775.4251      43499.737     -4899.3369     -134.20079      0.44999999     100038.64    
       212   385.76697      42144.602      751.79369      1928.4095      2774.28        43471.886     -4922.9345     -134.28969      0.44999999     100038.64    
       213   385.22316      42168.31       749.1591       1928.2392      2777.211       43446.337     -4873.5989     -134.29165      0.44999999     100038.64    
       214   385.28142      42145.372      746.47426      1927.9472      2798.1446      43442.391     -4909.6912     -134.96547      0.44999999     100038.64    
       215   381.60303      42172.047      743.34599      1927.5002      2826.5838      43444.832     -4909.8544     -135.27759      0.44999999     100038.64    
       216   377.72026      42200.102      739.74778      1927.106       2849.673       43451.461     -4907.1068     -135.60297      0.44999999     100038.64    
       217   374.59724      42210.633      736.50041      1926.699       2854.2606      43463.268     -4909.1389     -135.74116      0.44999999     100038.64    
       218   373.24294      42200.125      734.34732      1926.4737      2839.4354      43478.296     -4917.2571     -135.96168      0.44999999     100038.64    
       219   371.67348      42190.102      733.60128      1926.4503      2835.3637      43484.386     -4928.198      -136.3034       0.44999999     100038.64    
       220   370.36731      42173.163      731.91437      1926.7949      2841.3592      43481.022     -4945.8497     -136.88442      0.44999999     100038.64    
       221   371.72467      42247.742      727.56558      1927.4569      2837.1325      43463.941     -4845.4604     -137.69811      0.44999999     100038.64    
       222   375.99382      42172.528      721.86611      1928.2345      2816.0729      43438.801     -4868.4565     -138.76704      0.44999999     100038.64    
       223   382.27747      42083.96       718.1764       1928.9383      2788.1233      43407.753     -4893.7976     -139.97257      0.44999999     100038.64    
       224   386.64968      42001.282      716.79995      1929.2983      2760.3481      43376.403     -4915.1963     -141.07859      0.44999999     100038.64    
       225   387.73883      41962.421      716.5205       1929.3849      2753.3945      43350.087     -4919.4475     -142.16904      0.44999999     100038.64    
       226   388.11113      41917.114      715.43034      1929.0874      2758.337       43333.67      -4950.8144     -143.21006      0.44999999     100038.64    
       227   386.3716       41900.031      711.66391      1928.6269      2768.6857      43324.471     -4963.7417     -144.26871      0.44999999     100038.64    
       228   384.97074      41888.264      706.20152      1928.1947      2775.0836      43321.897     -4972.4097     -145.28417      0.44999999     100038.64    
       229   385.11766      41859.914      700.85217      1927.952       2761.7965      43324.829     -4983.9908     -146.11195      0.44999999     100038.64    
       230   385.53836      41836.156      698.68716      1927.9541      2744.1294      43329.444     -4991.739      -146.91702      0.44999999     100038.64    
       231   382.96947      41841.731      700.07568      1928.2512      2748.7353      43334.164     -4996.1331     -147.93988      0.44999999     100038.64    
       232   379.76071      41857.705      704.45783      1928.645       2757.5965      43338.502     -4997.1781     -148.86085      0.44999999     100038.64    
       233   377.44455      41883.681      708.23281      1928.9477      2756.0793      43337.706     -4972.1095     -149.66682      0.44999999     100038.64    
       234   377.88037      41859.175      708.92537      1928.9892      2743.3919      43336.546     -4982.4727     -150.62024      0.44999999     100038.64    
       235   376.53802      41844.511      706.4511       1928.6879      2733.6084      43329.538     -4976.3248     -151.74472      0.44999999     100038.64    
       236   374.40039      41846.828      705.92199      1928.108       2740.4919      43317.503     -4966.4714     -152.90629      0.44999999     100038.64    
       237   371.12161      41874.621      708.74638      1927.3756      2761.2173      43303.889     -4946.5874     -154.10905      0.44999999     100038.64    
       238   367.36765      41901.496      713.53628      1926.5871      2782.0687      43292.359     -4932.0478     -155.00906      0.44999999     100038.64    
       239   364.61361      41919.48       717.03506      1926.0212      2798.3532      43279.255     -4919.3469     -155.7801       0.44999999     100038.64    
       240   363.77537      41923.825      718.53274      1925.8051      2803.3473      43262.82      -4904.2759     -156.29597      0.44999999     100038.64    
       241   364.44922      41912.193      721.47925      1926.0801      2790.4666      43245.79      -4888.7746     -156.73064      0.44999999     100038.64    
       242   364.36743      41901.058      726.78663      1926.7088      2778.0467      43231.278     -4878.6358     -157.0081       0.44999999     100038.64    
       243   362.73578      41897.911      735.59263      1927.434       2772.759       43220.845     -4875.461      -157.15412      0.44999999     100038.64    
       244   361.72859      41890.83       745.81276      1928.0116      2769.1464      43209.978     -4879.3414     -156.65654      0.44999999     100038.64    
       245   363.66838      41859.51       755.23739      1928.2735      2746.1667      43200.511     -4888.2897     -156.20439      0.44999999     100038.64    
       246   367.30258      41804.466      762.18048      1928.2535      2700.9949      43199.002     -4904.2714     -155.42693      0.44999999     100038.64    
       247   369.00467      41767.795      766.16085      1928.0273      2671.7461      43208.871     -4925.8651     -154.78518      0.44999999     100038.64    
       248   367.02839      41772.231      766.66856      1927.576       2680.9758      43226.679     -4949.5302     -153.68634      0.44999999     100038.64    
       249   363.18347      41799.821      764.91565      1927.0937      2709.5579      43253.267     -4975.9023     -152.59755      0.44999999     100038.64    
       250   360.37758      41822.102      760.28377      1926.7246      2730.598       43282.058     -4999.5191     -151.50126      0.44999999     100038.64    
       251   359.1435       41821.434      751.84283      1926.6612      2729.713       43307.997     -5017.7531     -150.50664      0.44999999     100038.64    
       252   357.78056      41810.636      741.64181      1926.7736      2715.8454      43330.033     -5027.6144     -149.58113      0.44999999     100038.64    
       253   356.26422      41809.523      730.84538      1926.9868      2703.5223      43341.395     -5018.2821     -148.53173      0.44999999     100038.64    
       254   356.37115      41798.804      721.09433      1927.1284      2709.9721      43344.205     -5029.3795     -147.8575       0.44999999     100038.64    
       255   354.92091      41819.174      713.10083      1927.1771      2736.3293      43336.952     -5020.5146     -147.53645      0.44999999     100038.64    
       256   353.07766      41817.005      706.50167      1926.9393      2747.849       43329.914     -5020.4885     -147.36165      0.44999999     100038.64    
       257   354.61481      41786.484      700.40343      1926.4213      2727.3944      43318.178     -5012.2654     -147.23689      0.44999999     100038.64    
       258   357.15671      41748.154      694.90895      1925.8855      2696.8711      43303.205     -4999.5272     -146.69332      0.44999999     100038.64    
       259   357.31014      41728.666      689.58398      1925.4257      2685.3452      43284.445     -4983.3737     -146.20517      0.44999999     100038.64    
       260   354.89775      41733.309      685.53017      1925.0861      2694.1795      43262.657     -4962.0983     -145.49665      0.44999999     100038.64    
       261   353.61886      41730.781      682.27977      1924.8936      2697.1385      43234.901     -4937.1237     -144.8485       0.44999999     100038.64    
       262   354.37886      41713.025      678.9277       1924.9195      2686.3573      43205.731     -4912.1551     -144.42883      0.44999999     100038.64    
       263   355.27292      41685.329      676.57885      1925.1213      2669.3625      43175.084     -4890.3478     -144.28893      0.44999999     100038.64    
       264   355.99992      41654.442      676.88038      1925.385       2654.4197      43140.746     -4872.6244     -144.30771      0.44999999     100038.64    
       265   357.0419       41630.303      679.8048       1925.6407      2651.0332      43101.79      -4857.712      -144.2836       0.44999999     100038.64    
       266   356.93739      41624.315      683.79632      1925.9689      2672.5262      43069.941     -4857.3472     -144.6253       0.44999999     100038.64    
       267   355.6286       41646.932      688.33374      1926.3682      2695.5337      43046.401     -4838.3573     -145.36368      0.44999999     100038.64    
       268   354.85572      41626.156      690.63546      1926.684       2705.7952      43032.573     -4857.0331     -146.44229      0.44999999     100038.64    
       269   356.05486      41599.161      689.79634      1926.8405      2708.036       43027.868     -4879.8411     -147.42445      0.44999999     100038.64    
       270   355.61728      41581.978      686.21045      1926.8272      2713.2442      43029.313     -4899.469      -148.00318      0.44999999     100038.64    
       271   353.61923      41570.194      680.10197      1926.6442      2716.2041      43038.591     -4916.9095     -148.33022      0.44999999     100038.64    
       272   352.92682      41550.264      672.89332      1926.3392      2709.7227      43052.922     -4937.3598     -148.23129      0.44999999     100038.64    
       273   353.91412      41523.472      666.87497      1926.0909      2699.9108      43068.049     -4963.6019     -147.92858      0.44999999     100038.64    
       274   354.52609      41503.366      663.87654      1926.0217      2686.5657      43078.678     -4978.4887     -147.4224       0.44999999     100038.64    
       275   354.33111      41486.5        664.38171      1926.131       2674.992       43089.779     -4995.9167     -147.01372      0.44999999     100038.64    
       276   353.49496      41479.528      668.07354      1926.4194      2670.7926      43100.217     -5013.4462     -146.64938      0.44999999     100038.64    
       277   352.17553      41479.213      673.58968      1926.8445      2662.6853      43112.568     -5024.0486     -146.46865      0.44999999     100038.64    
       278   350.44734      41485.14       680.24437      1927.2361      2651.1857      43127.157     -5028.1163     -146.51163      0.44999999     100038.64    
       279   348.41299      41494.432      687.62527      1927.4736      2637.4043      43143.383     -5028.7436     -146.54972      0.44999999     100038.64    
       280   346.30792      41505.795      694.97293      1927.4442      2621.4464      43160.036     -5025.4059     -146.46607      0.44999999     100038.64    
       281   343.364        41525.164      702.10252      1927.1061      2613.9485      43174.549     -5019.7382     -146.56961      0.44999999     100038.64    
       282   339.41987      41554.7        707.01212      1926.615       2621.0349      43180.736     -5007.8895     -146.6355       0.44999999     100038.64    
       283   336.68932      41580.796      706.39016      1926.0785      2629.3518      43176.509     -4984.7555     -146.69809      0.44999999     100038.64    
       284   336.08621      41585.68       700.9638       1925.7554      2618.6706      43166.976     -4953.819      -146.88332      0.44999999     100038.64    
       285   337.48107      41560.118      695.81047      1925.7022      2589.9912      43150.702     -4929.1057     -147.08768      0.44999999     100038.64    
       286   339.55252      41518.327      692.88819      1926.0323      2559.0233      43128.804     -4915.2044     -147.35628      0.44999999     100038.64    
       287   342.10809      41477.378      692.75749      1926.7273      2532.7612      43101.264     -4902.7919     -147.4853       0.44999999     100038.64    
       288   343.75767      41447.57       694.30303      1927.5646      2520.97        43071.279     -4893.0885     -147.5579       0.44999999     100038.64    
       289   343.96595      41425.964      696.17886      1928.2917      2521.6552      43043.963     -4890.6264     -147.53912      0.44999999     100038.64    
       290   343.4798       41411.997      696.2092       1928.7859      2525.671       43023.055     -4888.2077     -147.47373      0.44999999     100038.64    
       291   343.73839      41401.854      694.33721      1928.9063      2526.3961      43008.113     -4882.6341     -147.15548      0.44999999     100038.64    
       292   342.07846      41410.75       689.86499      1928.6631      2547.0846      42995.617     -4877.5861     -146.73683      0.44999999     100038.64    
       293   338.49543      41439.356      682.7603       1928.1434      2591.6336      42984.75      -4875.5174     -146.22528      0.44999999     100038.64    
       294   334.94675      41472.604      674.28683      1927.5842      2643.2024      42972.776     -4873.3462     -145.70646      0.44999999     100038.64    
       295   332.86148      41475.993      666.18325      1927.1644      2668.5929      42958.524     -4873.0032     -145.28037      0.44999999     100038.64    
       296   332.67869      41460.157      659.75717      1926.9269      2674.1766      42947.28      -4876.7961     -145.00979      0.44999999     100038.64    
       297   333.20439      41440.869      655.06322      1926.8827      2682.5502      42931.746     -4884.369      -144.85199      0.44999999     100038.64    
       298   332.59021      41427.555      652.28933      1926.9485      2698.7064      42917.326     -4896.7127     -144.91292      0.44999999     100038.64    
       299   333.17234      41408.726      651.09504      1926.9156      2709.3665      42905.757     -4913.4172     -144.95598      0.44999999     100038.64    
       300   336.28039      41376.24       651.11884      1926.614       2700.8178      42901.248     -4932.5806     -145.00411      0.44999999     100038.64    
       301   338.70093      41343.235      652.47472      1925.9574      2677.7999      42909.025     -4951.0069     -145.09692      0.44999999     100038.64    
       302   338.87636      41331.265      655.46607      1924.9772      2656.799       42925.305     -4960.1106     -145.26721      0.44999999     100038.64    
       303   338.02163      41335.161      659.42103      1923.8193      2649.4123      42949.287     -4975.5211     -145.37038      0.44999999     100038.64    
       304   337.19449      41339.455      664.38775      1922.6434      2659.0268      42972.022     -5007.3798     -145.35533      0.44999999     100038.64    
       305   335.34624      41360.128      667.40248      1921.7831      2671.5558      42991.583     -5020.8388     -145.49225      0.44999999     100038.64    
       306   334.30628      41351.71       669.15313      1921.4401      2662.6933      43008.654     -5038.457      -145.98523      0.44999999     100038.64    
       307   335.31311      41327.412      671.73148      1921.5789      2638.1808      43018.946     -5050.6649     -146.67517      0.44999999     100038.64    
       308   334.86272      41323.995      676.44787      1922.1261      2625.894       43027.854     -5055.2857     -147.49908      0.44999999     100038.64    
       309   332.72778      41337.329      683.05327      1922.9892      2623.6906      43035.939     -5054.5709     -148.37332      0.44999999     100038.64    
       310   329.8616       41359.614      689.72309      1923.8472      2625.3786      43045.917     -5050.7899     -149.16941      0.44999999     100038.64    
       311   328.40337      41367.716      695.12898      1924.5812      2615.6772      43052.776     -5045.2702     -149.93937      0.44999999     100038.64    
       312   328.18006      41363.419      699.34643      1925.01        2599.0776      43051.726     -5035.7518     -150.71837      0.44999999     100038.64    
       313   328.51109      41353.72       700.90914      1925.237       2584.6948      43044.029     -5024.2046     -151.57092      0.44999999     100038.64    
       314   329.02508      41341.654      700.08535      1925.2267      2572.0875      43033.925     -5011.68       -152.46381      0.44999999     100038.64    
       315   328.70913      41331.804      696.96661      1925.2058      2564.6654      43023.082     -4999.1972     -153.24256      0.44999999     100038.64    
       316   329.30258      41311.051      692.65929      1925.2679      2550.7831      43009.449     -4987.3468     -153.96561      0.44999999     100038.64    
       317   330.30492      41282.723      686.68292      1925.4799      2530.7657      42998.296     -4977.6119     -155.04988      0.44999999     100038.64    
       318   332.24027      41257.196      680.95392      1925.846       2509.2555      42990.196     -4967.1797     -156.07752      0.44999999     100038.64    
       319   334.6487       41268.782      674.49526      1926.2648      2500.1953      42985.212     -4934.5742     -157.1235       0.44999999     100038.64    
       320   334.30412      41265.285      669.7869       1926.5718      2496.7212      42985.395     -4929.4186     -158.18807      0.44999999     100038.64    
       321   334.56809      41254.918      667.11934      1926.5924      2484.1351      42988.177     -4926.2348     -159.36318      0.44999999     100038.64    
       322   334.42336      41247.54       665.05313      1926.4625      2469.8767      42994.882     -4922.8868     -160.3538       0.44999999     100038.64    
       323   334.60487      41244.221      662.65122      1926.1021      2459.9715      43003.709     -4921.3401     -161.32778      0.44999999     100038.64    
       324   332.37828      41266.176      660.78619      1925.5969      2475.1438      43011.491     -4919.1114     -162.09332      0.44999999     100038.64    
       325   329.53175      41278.491      658.17519      1925.045       2500.3462      43015.566     -4932.0933     -162.81164      0.44999999     100038.64    
       326   328.26657      41285.726      655.61762      1924.517       2526.636       43012.291     -4944.1356     -163.38043      0.44999999     100038.64    
       327   327.21024      41291.149      653.16323      1924.1093      2555.4854      43003.862     -4956.0493     -163.57481      0.44999999     100038.64    
       328   326.28257      41288.271      651.65108      1923.7071      2582.2681      42990.003     -4970.1886     -163.33512      0.44999999     100038.64    
       329   325.99992      41278.21       650.50045      1923.3307      2602.5434      42974.818     -4984.5774     -162.62144      0.44999999     100038.64    
       330   325.88601      41266.359      647.4001       1923.022       2623.7593      42957.835     -4998.3904     -161.58246      0.44999999     100038.64    
       331   326.42444      41248.157      642.51499      1922.9045      2639.0638      42939.92      -5010.1261     -160.54441      0.44999999     100038.64    
       332   328.05066      41226.391      638.15868      1922.9848      2640.813       42925.248     -5015.8956     -159.44781      0.44999999     100038.64    
       333   329.99283      41201.631      634.89935      1923.1937      2625.7282      42917.719     -5016.2257     -158.2668       0.44999999     100038.64    
       334   330.67902      41182.848      631.78864      1923.6133      2604.2114      42919.039     -5013.3187     -157.08905      0.44999999     100038.64    
       335   329.55493      41182.581      626.56035      1924.0491      2593.4965      42925.565     -5005.8005     -155.86724      0.44999999     100038.64    
       336   327.148        41202.877      620.37083      1924.3184      2598.8319      42934.362     -4994.8339     -154.70091      0.44999999     100038.64    
       337   324.4848       41230.912      613.11375      1924.3664      2611.3161      42941.677     -4980.468      -153.56238      0.44999999     100038.64    
       338   325.16518      41250.659      604.78562      1924.2501      2625.0197      42946.302     -4971.87       -152.28134      0.44999999     100038.64    
       339   323.1067       41270          597.66461      1924.0761      2640.9413      42946.621     -4962.528      -151.24434      0.44999999     100038.64    
       340   321.71741      41281.482      592.61425      1923.9409      2652.298       42940.483     -4952.2984     -150.04404      0.44999999     100038.64    
       341   320.21342      41296.151      591.42019      1923.9671      2667.5515      42931.246     -4944.0069     -148.55299      0.44999999     100038.64    
       342   319.51659      41301.787      594.20079      1924.0789      2675.9965      42920.239     -4940.3576     -146.95303      0.44999999     100038.64    
       343   319.47828      41290.789      601.22007      1924.2952      2664.1324      42910.795     -4939.1215     -145.15898      0.44999999     100038.64    
       344   320.60745      41271.544      611.74079      1924.5539      2642.3201      42901.064     -4939.3824     -143.42154      0.44999999     100038.64    
       345   321.15169      41259.201      623.83517      1924.8238      2618.9039      42899.996     -4941.21       -141.85806      0.44999999     100038.64    
       346   320.45032      41258.184      637.39544      1924.9404      2600.2457      42900.187     -4938.9525     -140.37937      0.44999999     100038.64    
       347   319.98361      41261.565      650.49126      1924.6511      2580.0182      42906.355     -4935.5439     -139.17994      0.44999999     100038.64    
       348   319.59569      41264.111      661.1937       1923.9862      2562.882       42913.779     -4933.9648     -138.56448      0.44999999     100038.64    
       349   319.08033      41264.288      667.648        1923.1336      2550.7813      42918.879     -4932.6016     -138.36343      0.44999999     100038.64    
       350   319.23244      41254.861      670.01085      1922.2728      2536.4526      42919.479     -4929.6767     -138.4973       0.44999999     100038.64    
       351   320.10797      41235.654      670.86638      1921.5387      2515.7063      42916.662     -4924.9728     -138.96693      0.44999999     100038.64    
       352   320.15355      41227.574      671.1508       1920.9959      2506.2915      42914.928     -4920.9467     -139.67234      0.44999999     100038.64    
       353   320.39941      41224.836      671.79748      1920.7318      2500.4246      42917.829     -4920.0358     -140.77351      0.44999999     100038.64    
       354   320.42444      41222.971      673.26159      1920.6272      2491.3165      42925.555     -4920.5538     -142.1569       0.44999999     100038.64    
       355   320.84058      41215.514      675.02063      1920.6371      2479.6165      42931.5       -4922.521      -143.74         0.44999999     100038.64    
       356   322.00524      41198.256      676.51528      1920.5192      2464.7881      42933.674     -4927.096      -145.22835      0.44999999     100038.64    
       357   322.98824      41177.445      676.19038      1920.3085      2454.077       42934.274     -4935.6093     -146.9178       0.44999999     100038.64    
       358   323.61105      41159.967      673.34778      1919.9431      2457.4644      42929.996     -4947.5085     -148.36732      0.44999999     100038.64    
       359   322.8466       41158.588      670.14796      1919.4429      2473.9036      42925.144     -4955.4581     -149.58059      0.44999999     100038.64    
       360   322.30112      41160.525      667.95165      1919.0193      2492.7301      42922.792     -4965.8686     -150.90664      0.44999999     100038.64    
       361   322.32014      41160.758      665.39283      1918.8082      2509.6151      42923.332     -4978.5894     -152.39865      0.44999999     100038.64    
       362   321.72819      41161.178      661.80503      1918.7614      2520.709       42927.385     -4987.9867     -153.90569      0.44999999     100038.64    
       363   320.77204      41169.802      655.90677      1918.9685      2535.8374      42934.864     -4994.6828     -155.38002      0.44999999     100038.64    
       364   319.66394      41182.161      650.78891      1919.34        2545.8019      42944.624     -4995.861      -156.80704      0.44999999     100038.64    
       365   318.17417      41197.511      647.6716       1919.8488      2553.6582      42954.527     -4993.9006     -158.6263       0.44999999     100038.64    
       366   316.13882      41212.806      646.49308      1920.3807      2559.4572      42959.943     -4987.5724     -160.31414      0.44999999     100038.64    
       367   315.25939      41215.998      646.98527      1920.9061      2555.8947      42959.671     -4979.9787     -161.9879       0.44999999     100038.64    
       368   316.03348      41204.109      647.0527       1921.4399      2543.6444      42954.53      -4973.5914     -163.53507      0.44999999     100038.64    
       369   316.58375      41187.615      644.82116      1921.9668      2536.1263      42943.642     -4968.4897     -165.01923      0.44999999     100038.64    
       370   316.71412      41173.862      639.64723      1922.4068      2538.4238      42929.62      -4964.5071     -166.2439       0.44999999     100038.64    
       371   317.58179      41155.633      631.82537      1922.7536      2543.5968      42913.096     -4962.8172     -167.27269      0.44999999     100038.64    
       372   319.86327      41127.15       623.41697      1923.0743      2538.2177      42898.375     -4962.448      -167.90452      0.44999999     100038.64    
       373   321.74153      41102.189      616.26362      1923.3289      2533.9295      42885.463     -4963.3151     -167.96055      0.44999999     100038.64    
       374   322.92747      41092.243      611.40166      1923.4599      2536.0987      42878.815     -4964.6304     -167.52375      0.44999999     100038.64    
       375   322.92822      41100.297      609.49482      1923.4791      2550.5064      42875.73      -4966.8211     -166.89486      0.44999999     100038.64    
       376   321.76888      41116.572      610.07111      1923.3725      2567.1876      42879.858     -4972.9568     -165.9737       0.44999999     100038.64    
       377   321.01929      41126.808      613.12703      1923.2171      2572.6037      42885.846     -4978.2767     -164.86622      0.44999999     100038.64    
       378   320.62939      41126.705      617.29814      1923.2558      2560.2918      42890.864     -4976.5507     -163.67999      0.44999999     100038.64    
       379   320.98814      41111.385      622.10012      1923.3101      2536.0879      42894.404     -4977.249      -162.44304      0.44999999     100038.64    
       380   321.57816      41097.153      626.3424       1923.434       2522.6588      42890.531     -4979.6646     -161.1713       0.44999999     100038.64    
       381   320.09076      41107.836      629.35622      1923.5733      2532.5847      42879.2       -4971.923      -159.77212      0.44999999     100038.64    
       382   317.75972      41122.968      631.24548      1923.6435      2553.9582      42862.966     -4965.1646     -158.29555      0.44999999     100038.64    
       383   317.7297       41108.785      632.61546      1923.6013      2551.382       42841.276     -4957.6423     -156.87016      0.44999999     100038.64    
       384   319.64867      41071.522      634.69272      1923.4514      2528.6915      42816.412     -4950.4633     -155.54191      0.44999999     100038.64    
       385   320.44846      41054.723      638.82874      1923.1458      2519.9334      42793.682     -4940.9        -154.12985      0.44999999     100038.64    
       386   320.00937      41065.224      643.85342      1923.0501      2530.4007      42775.784     -4929.2459     -152.71629      0.44999999     100038.64    
       387   318.85282      41084.697      650.19968      1923.2094      2537.8757      42766.593     -4915.5674     -151.64622      0.44999999     100038.64    
       388   318.2276       41092.322      656.48439      1923.6965      2525.9014      42765.555     -4902.7195     -150.54538      0.44999999     100038.64    
       389   318.33762      41086.416      661.63097      1924.3968      2501.1193      42766.101     -4891.1534     -149.50042      0.44999999     100038.64    
       390   318.43475      41074.746      663.83539      1925.247       2475.0501      42766.075     -4880.6272     -148.48792      0.44999999     100038.64    
       391   317.14286      41080.389      664.74679      1926.1654      2473.6094      42764.383     -4874.466      -147.53515      0.44999999     100038.64    
       392   314.97163      41093.096      663.53109      1926.923       2489.5353      42753.8       -4867.5497     -146.49326      0.44999999     100038.64    
       393   313.45241      41092.126      660.88526      1927.4566      2499.1456      42733.232     -4856.3142     -145.52796      0.44999999     100038.64    
       394   314.36779      41069.8        656.33394      1927.7689      2496.3458      42704.364     -4843.5516     -144.65835      0.44999999     100038.64    
       395   316.34617      41039.433      651.25396      1928.0036      2494.8667      42670.109     -4834.0395     -143.97238      0.44999999     100038.64    
       396   317.3058       41019.084      644.81259      1928.1447      2505.3796      42637.435     -4826.917      -143.06441      0.44999999     100038.64    
       397   317.67598      41007.167      638.22166      1928.349       2521.8714      42612.585     -4825.0606     -142.19742      0.44999999     100038.64    
       398   318.39597      41001.257      632.6217       1928.475       2530.9297      42599.128     -4822.2082     -141.21964      0.44999999     100038.64    
       399   318.20845      41006.204      628.94955      1928.5594      2536.5453      42599.706     -4820.932      -140.28291      0.44999999     100038.64    
       400   316.82125      41018.033      627.52059      1928.5961      2538.3613      42613.201     -4823.7742     -139.59018      0.44999999     100038.64    
       401   315.9849       41020.379      627.99992      1928.5483      2523.8946      42635.152     -4829.8942     -139.07752      0.44999999     100038.64    
       402   315.04416      41022.492      629.25102      1928.2884      2509.7641      42661.903     -4841.5737     -138.88316      0.44999999     100038.64    
       403   313.19242      41041.126      631.41103      1927.8102      2514.7369      42688.942     -4856.5555     -138.9216       0.44999999     100038.64    
       404   311.75476      41058.036      633.27642      1927.173       2523.7976      42712.863     -4873.3554     -139.36557      0.44999999     100038.64    
       405   311.29711      41060.212      635.27944      1926.471       2522.4762      42732.282     -4889.5714     -140.28613      0.44999999     100038.64    
       406   312.1604       41046.929      637.26107      1925.7848      2511.952       42744.606     -4904.7187     -141.43333      0.44999999     100038.64    
       407   312.97755      41037.693      639.18549      1925.2019      2510.005       42750.547     -4917.8022     -142.82964      0.44999999     100038.64    
       408   312.55258      41042.077      641.29114      1924.6679      2521.1906      42753.204     -4927.1375     -144.41152      0.44999999     100038.64    
       409   312.31624      41044.582      645.0319       1924.1132      2525.8121      42754.544     -4931.656      -146.40136      0.44999999     100038.64    
       410   313.37507      41032.209      649.14964      1923.5737      2515.2051      42760.145     -4940.3206     -148.53064      0.44999999     100038.64    
       411   313.57541      41043.16       652.17746      1923.0882      2501.0944      42774.351     -4929.8055     -150.54865      0.44999999     100038.64    
       412   313.47652      41031.894      653.27336      1922.6429      2485.4024      42790.575     -4939.977      -152.64642      0.44999999     100038.64    
       413   312.57352      41030.702      652.23777      1922.3126      2481.7786      42802.788     -4945.972      -154.88583      0.44999999     100038.64    
       414   310.07203      41056.098      649.75948      1922.084       2501.3474      42811.421     -4943.9803     -156.78943      0.44999999     100038.64    
       415   308.8993       41068.463      646.00941      1922.0373      2514.6158      42814.208     -4942.249      -158.22991      0.44999999     100038.64    
       416   310.41156      41041.803      641.59565      1922.0404      2495.3431      42810.792     -4940.6406     -159.24854      0.44999999     100038.64    
       417   311.61493      41009.487      637.68647      1922.0517      2476.9705      42798.974     -4937.9936     -159.99872      0.44999999     100038.64    
       418   311.76315      40995.133      633.29638      1922.0998      2482.4335      42781.157     -4935.3597     -160.22256      0.44999999     100038.64    
       419   311.16438      40995.402      628.78426      1922.1138      2504.9727      42759.612     -4931.7976     -159.99839      0.44999999     100038.64    
       420   310.96927      40986.618      624.98689      1922.0756      2515.7245      42739.573     -4927.8316     -159.67416      0.44999999     100038.64    
       421   312.12762      40958.435      622.86295      1922.0864      2503.5966      42720.296     -4923.1102     -159.13785      0.44999999     100038.64    
       422   313.09639      40932.634      623.14646      1922.1824      2483.3875      42707.467     -4916.6932     -158.79514      0.44999999     100038.64    
       423   312.87704      40918.949      625.83401      1922.2763      2465.0669      42702.461     -4910.2771     -158.4494       0.44999999     100038.64    
       424   311.56844      40931.808      632.05934      1922.3164      2462.8435      42702.333     -4901.5952     -158.25527      0.44999999     100038.64    
       425   309.76655      40966.196      639.23801      1922.3645      2481.6885      42703.782     -4894.7992     -158.23823      0.44999999     100038.64    
       426   308.11239      40990.955      647.43426      1922.4478      2491.6283      42706.285     -4890.7332     -158.32256      0.44999999     100038.64    
       427   307.99195      40982.214      652.93664      1922.4848      2476.7704      42704.333     -4888.0489     -158.53094      0.44999999     100038.64    
       428   307.81617      40978.384      654.7504       1922.451       2476.7765      42701.173     -4890.1527     -158.99436      0.44999999     100038.64    
       429   306.20772      40998.446      654.55301      1922.3386      2504.8726      42694.892     -4891.4651     -159.26912      0.44999999     100038.64    
       430   307.59025      41029.24       651.66523      1922.1214      2541.7512      42685.577     -4885.2846     -159.24194      0.44999999     100038.64    
       431   306.57692      41041.81       648.05431      1921.8577      2573.044       42679.117     -4894.1315     -158.90323      0.44999999     100038.64    
       432   306.31343      41032.691      644.37349      1921.718       2581.6744      42672.535     -4902.1516     -158.32023      0.44999999     100038.64    
       433   308.85945      40997.609      640.88474      1921.8104      2563.8806      42665.998     -4910.4488     -157.41098      0.44999999     100038.64    
       434   310.8204       40963.828      637.66216      1921.996       2548.4235      42658.186     -4918.9748     -156.33904      0.44999999     100038.64    
       435   311.21976      40947.528      635.38595      1922.2966      2551.8466      42649.504     -4929.2429     -155.05507      0.44999999     100038.64    
       436   311.74336      40944.32       633.1032       1922.6441      2566.5348      42639.37      -4936.5568     -153.47725      0.44999999     100038.64    
       437   313.61749      40926.052      631.73231      1922.9228      2562.4519      42629.98      -4941.8689     -151.77761      0.44999999     100038.64    
       438   317.71478      40880.769      630.41634      1923.1776      2525.3528      42625.206     -4946.1126     -149.84856      0.44999999     100038.64    
       439   320.1628       40850.83       630.17794      1923.3653      2493.6667      42624.773     -4945.9398     -147.82741      0.44999999     100038.64    
       440   319.11008      40860.625      629.40683      1923.5665      2488.5657      42632.251     -4939.8107     -146.07231      0.44999999     100038.64    
       441   315.61499      40900.481      628.45662      1923.7446      2503.686       42648.165     -4931.5218     -144.91791      0.44999999     100038.64    
       442   310.73498      40952.821      626.92277      1923.8194      2524.7242      42669.895     -4921.5787     -143.99387      0.44999999     100038.64    
       443   306.50824      40993.017      623.78315      1923.7631      2534.4006      42691.096     -4910.0258     -143.20839      0.44999999     100038.64    
       444   305.24342      41001.287      619.48056      1923.5491      2520.8898      42705.972     -4899.2854     -142.66735      0.44999999     100038.64    
       445   306.00044      40989.652      614.58249      1923.2703      2496.4687      42715.182     -4890.8098     -142.47104      0.44999999     100038.64    
       446   306.11672      40989.076      610.42828      1922.9308      2488.2166      42723.153     -4886.5576     -142.55251      0.44999999     100038.64    
       447   305.85413      41002.963      607.17466      1922.6167      2494.3314      42733.341     -4885.278      -142.67875      0.44999999     100038.64    
       448   306.50919      41003.788      605.26352      1922.4433      2485.7571      42744.679     -4884.6361     -143.17221      0.44999999     100038.64    
       449   307.73159      40981.15       603.81806      1922.3385      2451.8463      42760.478     -4886.9624     -143.84576      0.44999999     100038.64    
       450   308.88487      40960.755      602.88218      1922.1748      2419.3679      42778.852     -4891.2931     -144.76194      0.44999999     100038.64    
       451   308.53693      40966.591      602.32344      1921.9323      2417.2254      42795.633     -4898.2096     -145.91764      0.44999999     100038.64    
       452   307.11089      40983.514      601.69813      1921.596       2432.7769      42805.993     -4905.1078     -147.10019      0.44999999     100038.64    
       453   306.7047       40994.034      601.15219      1921.2522      2448.3657      42812.025     -4913.9865     -148.4488       0.44999999     100038.64    
       454   306.70852      40999.527      600.59358      1920.8741      2467.5516      42808.87      -4922.0303     -149.97001      0.44999999     100038.64    
       455   308.02073      40985.383      599.00235      1920.4929      2474.2988      42802.297     -4932.5675     -151.702        0.44999999     100038.64    
       456   309.92879      40955.676      597.66228      1920.2716      2466.569       42795.741     -4944.6474     -153.36899      0.44999999     100038.64    
       457   310.50663      40934.125      597.67494      1920.1636      2466.6302      42784.146     -4953.0565     -154.72044      0.44999999     100038.64    
       458   308.74756      40944.969      598.23679      1920.2947      2495.102       42772.104     -4958.0591     -155.82879      0.44999999     100038.64    
       459   307.26338      40958.354      599.91473      1920.6344      2522.9914      42761.119     -4962.5917     -156.64716      0.44999999     100038.64    
       460   308.30475      40941.705      602.43541      1921.1221      2518.7295      42752.999     -4969.155      -157.20413      0.44999999     100038.64    
       461   310.21849      40912.801      603.39224      1921.5829      2506.0412      42741.594     -4974.5996     -157.87238      0.44999999     100038.64    
       462   311.1361       40893.309      602.52084      1922.0455      2501.5053      42731.151     -4978.0963     -158.45774      0.44999999     100038.64    
       463   310.30449      40888.108      600.58076      1922.3955      2506.0738      42724.365     -4978.9368     -159.01943      0.44999999     100038.64    
       464   308.32909      40890.728      598.25844      1922.6762      2513.9425      42717.894     -4975.3747     -159.3625       0.44999999     100038.64    
       465   307.22544      40899.761      595.21116      1922.8732      2527.0319      42711.28      -4969.8421     -159.57685      0.44999999     100038.64    
       466   306.64503      40910.981      592.85926      1922.9813      2540.6105      42703.099     -4961.6781     -159.77013      0.44999999     100038.64    
       467   307.38022      40901.498      591.85826      1922.9028      2532.9499      42691.291     -4950.7011     -159.7661       0.44999999     100038.64    
       468   309.10045      40877.351      591.44041      1922.7804      2510.5377      42677.236     -4938.0788     -159.57698      0.44999999     100038.64    
       469   309.31395      40871.152      591.92089      1922.6419      2504.8122      42666.472     -4928.3949     -159.34192      0.44999999     100038.64    
       470   308.04059      40884.332      593.51609      1922.5551      2517.1137      42656.526     -4919.3167     -159.12331      0.44999999     100038.64    
[...]
     32400   507.69663      40293.914     -249.15219      2040.488       3266.7702      42202.758     -4940.3755     -155.19421      0.98983568     45479.659      8              3              1              0            
     32500   500.39817      40342.884     -173.70012      2035.2113      3282.7234      42238.307     -5014.1789     -151.89259      0.98601471     45655.9        8              3              1              0            
     32600   491.02433      40420.042     -242.49358      2047.2408      3218.1311      42325.489     -4920.3851     -136.56912      0.98192002     45846.289      8              3              1              0            
     32700   499.78089      40298.708     -216.98577      2044.6019      3184.2043      42254.824     -4940.7464     -154.24763      0.97786318     46036.49       8              3              1              0            
     32800   499.67489      40302.633     -191.87003      2039.3971      3231.2604      42153.714     -4900.3303     -157.17474      0.97373583     46231.624      8              3              1              0            
     32900   489.14781      40454.014     -209.08003      2044.044       3310.6571      42329.064     -4995.2611     -150.78619      0.96988066     46415.39       8              3              1              0            
     33000   498.74566      40383.196     -195.33056      2046.3712      3138.1104      42286.779     -4873.1016     -148.95188      0.9663922      46582.939      8              3              1              0            
     33100   495.46222      40466.557     -180.03653      2048.9824      3306.576       42288.828     -4964.2304     -162.37658      0.96307399     46743.437      8              3              1              0            
     33200   500.0601       66272.012      960.49388      2052.553       27935.324      42261.003     -4916.7318     -150.07688      0.96042975     46872.131      9              3              1              0            
     33300   499.64895      40621.03      -117.67561      2061.4572      3261.7697      42268.024     -4827.4343     -153.91108      0.97120312     46352.187      9              3              1              0            
     33400   498.64369      40427.845     -203.13957      2056.4279      3264.3691      42113.273     -4792.6457     -141.01468      0.97576538     46135.464      9              3              1              0            
     33500   506.26338      40339.409     -137.22607      2057.8394      3199.4895      42161.403     -4936.589      -136.47763      0.97653672     46099.023      9              3              1              0            
     33600   498.91162      40398.429     -155.86168      2051.9128      3203.6622      42295.367     -4982.537      -142.52783      0.97489599     46176.607      9              3              1              0            
     33700   495.78039      40395.826     -137.73706      2055.6675      3149.0708      42258.832     -4912.5618     -145.05444      0.97229831     46299.977      9              3              1              0            
     33800   499.42779      40316.132     -156.13172      2054.4752      3193.0094      42059.297     -4819.4598     -142.7629       0.96930218     46443.091      9              3              1              0            
     33900   497.97553      40306.568     -192.50168      2054.1212      3182.4593      42166.843     -4904.7048     -129.2194       0.96612611     46595.769      9              3              1              0            
     34000   498.26877      40287.872     -163.97549      2050.0274      3279.6759      42091.704     -4952.918      -144.95631      0.96319215     46737.703      9              3              1              0            
     34100   493.81434      40325.545     -194.18884      2049.5526      3273.1629      42042.513     -4828.8654     -143.38942      0.96054191     46866.658      9              3              1              0            
     34200   500.88819      40250.274     -207.16747      2054.9115      3179.695       42082.979     -4848.0672     -140.87609      0.95816838     46982.754      9              3              1              0            
     34300   499.75514      40278.735     -173.88135      2050.3505      3198.4853      42147.416     -4913.6499     -158.85848      0.95589655     47094.415      9              3              1              0            
     34400   501.73923      40286.432     -251.12454      2056.9766      3173.1694      42089.52      -4792.2549     -120.33962      0.95364065     47205.82       9              3              1              0            
     34500   498.35425      40361.325     -180.71014      2060.6815      3326.1166      41993.801     -4829.8231     -139.40592      0.95159478     47307.31       9              3              1              0            
     34600   498.11612      40410.414     -185.57093      2059.0665      3244.9673      42243.976     -4940.0399     -141.50584      0.94939764     47416.79       9              3              1              0            
     34700   498.59108      40445.781     -193.95587      2061.4775      3368.9964      42025.903     -4797.5566     -151.31892      0.94694614     47539.545      9              3              1              0            
     34800   504.46086      40405.023     -150.4144       2060.6368      3245.4344      42029.326     -4779.4701     -132.33327      0.94442447     47666.479      9              3              1              0            
     34900   504.05757      40418.628     -163.62445      2062.9532      3205.2098      42097.008     -4767.1295     -145.5427       0.94219629     47779.204      9              3              1              0            
     35000   500.28195      40439.064     -123.37961      2063.6386      3275.4143      42136.581     -4901.8416     -144.37934      0.94007121     47887.211      9              3              1              0            
     35100   493.52675      40451.988     -190.72857      2062.7034      3240.4121      42237.716     -4890.9931     -137.87484      0.93810032     47987.819      9              3              1              0            
     35200   495.56295      40366.251     -139.78057      2056.587       3271.7022      42095.769     -4918.5476     -134.18768      0.93618891     48085.796      9              3              1              0            
     35300   492.83007      40355.996     -101.86555      2061.2021      3226.7862      42095.49      -4911.1452     -147.32743      0.93431624     48182.175      9              3              1              0            
     35400   496.22784      40297.694     -245.3975       2051.1929      3253.2571      42051.141     -4814.9131     -128.70843      0.93240773     48280.798      9              3              1              0            
     35500   485.51227      40439.213     -106.43368      2051.9072      3219.9792      42122.198     -4842.0319     -138.21772      0.93115989     48345.498      9              3              1              0            
     35600   498.28892      40364.266     -138.55111      2052.0165      3183.1865      42133.881     -4859.0914     -138.37845      0.92965069     48423.983      9              3              1              0            
     35700   495.82096      40518.082     -124.42801      2059.3612      3309.617       42106.788     -4818.6066     -145.2992       0.92811001     48504.367      9              3              1              0            
     35800   502.05194      40504.205     -84.496129      2052.1982      3231.124       42064.355     -4736.2291     -154.21982      0.92659558     48583.643      9              3              1              0            
     35900   509.98218      40410.011     -175.31891      2049.3795      3209.1372      42000.865     -4669.5708     -135.32265      0.92469816     48683.334      9              3              1              0            
     36000   505.34566      43646.156      255.26931      2058.1236      5894.1012      42170.269     -4725.9515     -140.69088      0.93103912     48351.769      10             3              1              0            
     36100   502.99086      40406.408     -140.98552      2054.1869      3305.3572      42098.204     -4904.9307     -139.27976      0.95127021     47323.451      10             3              1              0            
     36200   493.97549      40354.61      -90.229187      2046.6583      3220.2289      42154.643     -4953.5602     -155.4994       0.95724816     47027.919      10             3              1              0            
     36300   492.38703      40338.221     -145.46718      2051.8137      3274.8505      42011.873     -4854.8539     -134.83611      0.9581405      46984.121      10             3              1              0            
     36400   496.07877      40286.548     -188.62364      2048.6299      3289.4355      41999.601     -4852.7788     -144.15875      0.9576854      47006.448      10             3              1              0            
     36500   501.39652      40201.028     -172.49968      2058.2591      3258.1951      41980.461     -4913.7723     -142.62707      0.95627938     47075.562      10             3              1              0            
     36600   501.91111      40167.839     -170.36483      2051.4317      3199.9939      41975.611     -4882.249      -142.96744      0.95457504     47159.612      10             3              1              0            
     36700   498.4938       40192.327     -219.50778      2056.6325      3314.8283      41884.714     -4848.5898     -128.58518      0.95261611     47256.59       10             3              1              0            
     36800   493.94383      40229.17      -131.04454      2062.5907      3231.1375      41914.506     -4839.0636     -140.93051      0.95098898     47337.445      10             3              1              0            
     36900   492.728        40593.455     -79.348097      2057.7679      3488.1467      42012.435     -4880.8855     -136.75013      0.96618481     46592.938      10             3              2              0            
     37000   498.29629      39961.887     -181.82329      2062.0545      3105.5293      41853.727     -4869.6199     -137.44056      0.97800066     46030.019      10             3              2              0            
     37100   491.70909      40041.67      -193.39973      2057.397       3280.3698      41712.263     -4808.5204     -135.21398      0.98013483     45929.792      10             3              2              0            
     37200   497.44337      41303.44       63.988878      2057.7258      4275.1476      41897.194     -4976.6259     -140.64094      0.97960547     45954.611      10             3              3              0            
     37300   501.31228      55648.786      1262.5138      2064.173       17389.694      42034.95      -5081.5339     -146.99587      0.98453312     45724.606      10             4              3              0            
     37400   501.26427      39936.844     -229.63894      2070.5437      3222.5824      41845.259     -4955.4446     -141.26681      1.0035171      44859.614      10             4              3              0            
     37500   505.82908      39789.001     -237.89898      2069.9972      3303.1588      41627.372     -4952.652      -145.78161      1.0077704      44670.281      10             4              3              0            
     37600   502.7494       40069.981     -203.05083      2071.6743      3329.1772      41782.111     -4892.4692     -140.19485      1.0105796      44546.107      10             4              4              0            
     37700   503.64652      39569.788     -207.7909       2064.8922      3233.1679      41580.09      -5073.9881     -149.15926      1.014424       44377.289      10             4              4              0            
     37800   492.79789      39612.539     -229.22327      2077.2924      3173.4109      41497.347     -4913.2193     -119.02518      1.0135765      44414.397      10             4              4              0            
     37900   483.33012      39671.134     -193.38758      2077.4949      3136.0977      41518.931     -4861.2017     -136.31761      1.0109896      44528.044      10             4              4              0            
     38000   496.19017      46079.194      47.750722      2074.8248      9344.1337      41617.624     -4993.2099     -142.7446       1.0098625      44577.739      10             4              5              0            
     38100   489.35085      39534.923     -185.34016      2083.5309      3203.8938      41506.359     -5058.8069     -146.2714       1.0204187      44116.586      10             4              5              0            
     38200   489.15219      39540.684     -277.18324      2079.7262      3120.9403      41412.556     -4811.7112     -118.13271      1.0224574      44028.621      10             4              5              0            
     38300   499.3851       39391.506     -240.07049      2075.111       3095.7401      41400.971     -4931.8614     -142.80628      1.020668       44105.809      10             4              5              0            
     38400   498.70112      40098.319      17.850705      2086.2047      3474.949       41443.995     -4917.3453     -144.31826      1.0661149      42225.647      11             4              5              0            
     38500   513.04028      39262.8       -218.05402      2072.0777      3023.8091      41358.91      -4979.8709     -131.62285      1.070807       42040.62       11             4              5              0            
     38600   495.26086      39423.677     -205.15198      2075.803       3067.8644      41423.5       -4941.7908     -134.45227      1.0680243      42150.152      11             4              5              0            
     38700   496.64644      39601.297     -135.68107      2071.175       3097.1187      41448.715     -4873.317      -142.57788      1.1096685      40568.321      11             5              5              0            
     38800   499.22348      39256.146     -201.71348      2086.3793      3062.3288      41372.078     -5062.5829     -137.04615      1.1116754      40495.084      11             5              5              0            
     38900   509.49778      39016.389     -261.61905      2087.2156      3042.4729      41239.538     -5087.0097     -135.80808      1.1071524      40660.517      11             5              5              0            
     39000   498.0248       39067.749     -186.58629      2086.6524      2920.3163      41264.822     -5012.9875     -138.33815      1.1007685      40896.328      11             5              5              0            
     39100   494.28686      39056.333     -261.6158       2106.1159      2993.231       41207.784     -4988.0933     -138.78974      1.0928827      41191.418      11             5              5              0            
     39200   484.59581      39203.127     -135.04689      2098.7723      3016.67        41196.742     -4964.7358     -145.31981      1.0853608      41476.888      11             5              5              0            
     39300   497.34401      39147.443     -341.66355      2096.9417      3148.3853      41139.223     -4919.0282     -112.63669      1.0773857      41783.912      11             5              5              0            
     39400   503.32141      39115.109     -280.99121      2087.3197      3045.4201      41251.29      -4987.3902     -136.01658      1.0708041      42040.732      11             5              5              0            
     39500   509.97173      39086.018     -264.10183      2095.9138      3077.4341      41168.338     -4993.569      -133.88397      1.064377       42294.592      11             5              5              0            
     39600   496.37769      39277.833     -290.19863      2090.0179      3226.601       41250.466     -5002.9896     -131.6236       1.058189       42541.915      11             5              5              0            
     39700   500.85955      39240.916     -307.93114      2089.251       3083.2249      41342.936     -4986.6406     -115.18485      1.0522395      42782.457      11             5              5              0            
     39800   504.16739      39556.99      -208.21698      2086.3563      3386.1194      41299.98      -4998.7696     -141.86064      1.0493142      42901.723      11             6              5              0            
     39900   502.31581      39330.1       -228.15769      2085.9077      3198.2458      41217.948     -4960.3706     -118.36335      1.0475762      42972.901      11             6              5              0            
     40000   495.81706      39262.014     -268.56793      2097.1434      3152.833       41087.385     -4826.826      -115.03801      1.043691       43132.871      11             6              5              0            
     40100   491.14028      39204.946     -217.24258      2093.1718      3088.5843      41177.361     -4937.517      -135.26448      1.0388122      43335.446      11             6              5              0            
     40200   498.59514      39107.921     -277.75091      2091.2338      3076.8817      41149.456     -4938.7173     -129.82849      1.0336508      43551.833      11             6              5              0            
     40300   496.02591      40530.215      20.67912       2093.0223      4183.2486      41208.489     -4951.275      -159.9856       1.0790624      41718.986      11             7              5              0            
     40400   508.17577      39035.051     -273.58686      2090.1128      3208.4587      40980.101     -4976.9799     -131.73191      1.0888385      41344.412      11             7              5              0            
     40500   497.02269      39050.93      -275.61627      2088.1967      3108.3604      41112.103     -4979.9379     -137.41502      1.0869053      41417.95       11             7              5              0            
     40600   500.19906      38933.514     -306.9522       2082.3239      3114.8691      41071.297     -5041.4887     -118.3058       1.0828829      41571.797      11             7              5              0            
     40700   492.23967      38949.367     -253.66773      2088.0731      3073.5565      41136.64      -5082.5392     -144.86161      1.0781862      41752.891      11             7              5              0            
     40800   487.03067      38933.129     -266.74091      2096.1259      3021.0489      41086.939     -4986.3521     -148.47155      1.0728751      41959.58       11             7              5              0            
     40900   495.92353      38825.007     -282.64573      2081.874       3076.6884      40917.951     -4954.8093     -143.09101      1.0673936      42175.061      11             7              5              0            
     41000   491.21145      38939.939     -301.25695      2094.6467      3130.4729      40935.905     -4918.93       -128.62314      1.0618017      42397.171      11             7              5              0            
     41100   494.52062      38942.847     -289.4866       2094.8683      3005.2586      41166.691     -5015.9397     -148.54339      1.0567572      42599.559      11             7              5              0            
ERROR on proc 5: Fix bond/react: Excessive iteration of superimpose algorithm. Please check that all pre-reaction template atoms are linked to an initiator atom, via at least one path that does not involve edge atoms. (../fix_bond_react.cpp:1387)
Last command: run 400000
