LAMMPS (22 Dec 2022)
# PREREQUISITES:
#
#     You must use moltemplate.sh to create 3 files:
#        system.data  system.in.init  system.in.settings
#     (Follow the instructions in README_setup.sh,
#      or run the file as a script using ./README_setup.sh)

# ------------------------------- Initialization Section --------------------

units real
atom_style full
pair_style lj/class2/coul/long 10.0 10.0
bond_style class2
angle_style class2
dihedral_style class2
improper_style class2
kspace_style pppm/cg 0.001

pair_modify     mix sixthpower tail yes
special_bonds   lj/coul 0 0 1


# ------------------------------- Atom Definition Section -------------------

read_data       "reacted_lmp.data"
Reading data file ...
  orthogonal box = (5.1901177 5.1901177 5.1901177) to (43.100212 43.100212 43.100212)
  2 by 3 by 4 MPI processor grid
  reading atoms ...
  5010 atoms
  reading velocities ...
  5010 velocities
  scanning bonds ...
  4 = max bonds/atom
  scanning angles ...
  6 = max angles/atom
  scanning dihedrals ...
  15 = max dihedrals/atom
  scanning impropers ...
  4 = max impropers/atom
  reading bonds ...
  5242 bonds
  reading angles ...
  10472 angles
  reading dihedrals ...
  15498 dihedrals
  reading impropers ...
  6664 impropers
Finding 1-2 1-3 1-4 neighbors ...
  special bond factors lj:    0        0        1       
  special bond factors coul:  0        0        1       
     4 = max # of 1-2 neighbors
     9 = max # of 1-3 neighbors
    13 = max # of special neighbors
  special bonds CPU = 0.005 seconds
  read_data CPU = 0.416 seconds

include calc.pram

# Masses

mass		1    12.01115  # c
mass		2    12.01115  # c1
mass		3    12.01115  # c3h
mass		4     1.00797  # h
mass		5     1.00797  # hc
mass		6    15.99940  # o3e
mass		7    15.99940  # oc
mass		8    15.99940  # oh

# Potentials

pair_coeff	 1  1    0.05400    4.01000  # c,c
pair_coeff	 2  2    0.05400    4.01000  # c1,c1
pair_coeff	 3  3    0.05400    4.01000  # c3h,c3h
pair_coeff	 4  4    0.02000    2.99500  # h,h
pair_coeff	 5  5    0.02000    2.99500  # hc,hc
pair_coeff	 6  6    0.24000    3.53500  # o3e,o3e
pair_coeff	 7  7    0.24000    3.53500  # oc,oc
pair_coeff	 8  8    0.24000    3.53500  # oh,oh

# Bond Coeffs

bond_coeff	 1    1.53000  299.67000 -501.77000  679.81000  # c,c
bond_coeff	 2    1.53000  299.67000 -501.77000  679.81000  # c,c1
bond_coeff	 3    1.53000  299.67000 -501.77000  679.81000  # c,c3h
bond_coeff	 4    1.10100  345.00000 -691.89000  844.60000  # c,hc
bond_coeff	 5    1.42000  400.39540 -835.19510 1313.01420  # c,o3e
bond_coeff	 6    1.42000  400.39540 -835.19510 1313.01420  # c,oc
bond_coeff	 7    1.42000  400.39540 -835.19510 1313.01420  # c,oh
bond_coeff	 8    1.10100  345.00000 -691.89000  844.60000  # c1,hc
bond_coeff	 9    1.42000  400.39540 -835.19510 1313.01420  # c1,oc
bond_coeff	10    1.10100  345.00000 -691.89000  844.60000  # c3h,hc
bond_coeff	11    1.42000  400.39540 -835.19510 1313.01420  # c3h,o3e
bond_coeff	12    0.96000  493.84800    0.00000    0.00000  # h,oh

# Angle Coeffs

angle_coeff	 1  112.67000   39.51600   -7.44300   -9.55830  # c,c,c
angle_coeff	 2  112.67000   39.51600   -7.44300   -9.55830  # c,c,c1
angle_coeff	 3  110.77000   41.45300  -10.60400    5.12900  # c,c,hc
angle_coeff	 4  111.27000   54.53810   -8.36420  -13.08380  # c,c,oc
angle_coeff	 5  112.67000   39.51600   -7.44300   -9.55830  # c,c1,c
angle_coeff	 6  110.77000   41.45300  -10.60400    5.12900  # c,c1,hc
angle_coeff	 7  111.27000   54.53810   -8.36420  -13.08380  # c,c1,oc
angle_coeff	 8  112.67000   39.51600   -7.44300   -9.55830  # c,c3h,c
angle_coeff	 9  110.77000   41.45300  -10.60400    5.12900  # c,c3h,hc
angle_coeff	10  111.27000   54.53810   -8.36420  -13.08380  # c,c3h,o3e
angle_coeff	11  104.50000   35.74540  -10.00670   -6.27290  # c,o3e,c3h
angle_coeff	12  104.50000   35.74540  -10.00670   -6.27290  # c,oc,c
angle_coeff	13  104.50000   35.74540  -10.00670   -6.27290  # c,oc,c1
angle_coeff	14  109.00000   58.50000    0.00000    0.00000  # c,oh,h
angle_coeff	15  110.77000   41.45300  -10.60400    5.12900  # c1,c,hc
angle_coeff	16  111.27000   54.53810   -8.36420  -13.08380  # c1,c,oc
angle_coeff	17  111.27000   54.53810   -8.36420  -13.08380  # c1,c,oh
angle_coeff	18  110.77000   41.45300  -10.60400    5.12900  # c3h,c,hc
angle_coeff	19  111.27000   54.53810   -8.36420  -13.08380  # c3h,c,o3e
angle_coeff	20  111.27000   54.53810   -8.36420  -13.08380  # c3h,c,oc
angle_coeff	21  107.66000   39.64100  -12.92100   -2.43180  # hc,c,hc
angle_coeff	22  108.72800   58.54460  -10.80880  -12.40060  # hc,c,o3e
angle_coeff	23  108.72800   58.54460  -10.80880  -12.40060  # hc,c,oc
angle_coeff	24  108.72800   58.54460  -10.80880  -12.40060  # hc,c,oh
angle_coeff	25  108.72800   58.54460  -10.80880  -12.40060  # hc,c1,oc
angle_coeff	26  108.72800   58.54460  -10.80880  -12.40060  # hc,c3h,o3e

# BondBond Coeffs

angle_coeff	 1 bb    0.00000    1.53000    1.53000  # c,c,c
angle_coeff	 2 bb    0.00000    1.53000    1.53000  # c,c,c1
angle_coeff	 3 bb    3.38720    1.53000    1.10100  # c,c,hc
angle_coeff	 4 bb   11.43180    1.53000    1.42000  # c,c,oc
angle_coeff	 5 bb    0.00000    1.53000    1.53000  # c,c1,c
angle_coeff	 6 bb    3.38720    1.53000    1.10100  # c,c1,hc
angle_coeff	 7 bb   11.43180    1.53000    1.42000  # c,c1,oc
angle_coeff	 8 bb    0.00000    1.53000    1.53000  # c,c3h,c
angle_coeff	 9 bb    3.38720    1.53000    1.10100  # c,c3h,hc
angle_coeff	10 bb   11.43180    1.53000    1.42000  # c,c3h,o3e
angle_coeff	11 bb   -7.11310    1.42000    1.42000  # c,o3e,c3h
angle_coeff	12 bb   -7.11310    1.42000    1.42000  # c,oc,c
angle_coeff	13 bb   -7.11310    1.42000    1.42000  # c,oc,c1
angle_coeff	14 bb    0.00000    1.42000    0.96000  # c,oh,h
angle_coeff	15 bb    3.38720    1.53000    1.10100  # c1,c,hc
angle_coeff	16 bb   11.43180    1.53000    1.42000  # c1,c,oc
angle_coeff	17 bb   11.43180    1.53000    1.42000  # c1,c,oh
angle_coeff	18 bb    3.38720    1.53000    1.10100  # c3h,c,hc
angle_coeff	19 bb   11.43180    1.53000    1.42000  # c3h,c,o3e
angle_coeff	20 bb   11.43180    1.53000    1.42000  # c3h,c,oc
angle_coeff	21 bb    5.33160    1.10100    1.10100  # hc,c,hc
angle_coeff	22 bb   23.19790    1.10100    1.42000  # hc,c,o3e
angle_coeff	23 bb   23.19790    1.10100    1.42000  # hc,c,oc
angle_coeff	24 bb   23.19790    1.10100    1.42000  # hc,c,oh
angle_coeff	25 bb   23.19790    1.10100    1.42000  # hc,c1,oc
angle_coeff	26 bb   23.19790    1.10100    1.42000  # hc,c3h,o3e

# BondAngle Coeffs

angle_coeff	 1 ba    8.01600    8.01600    1.53000    1.53000  # c,c,c
angle_coeff	 2 ba    8.01600    8.01600    1.53000    1.53000  # c,c,c1
angle_coeff	 3 ba   11.42100   20.75400    1.53000    1.10100  # c,c,hc
angle_coeff	 4 ba    2.68680   20.40330    1.53000    1.42000  # c,c,oc
angle_coeff	 5 ba    8.01600    8.01600    1.53000    1.53000  # c,c1,c
angle_coeff	 6 ba   11.42100   20.75400    1.53000    1.10100  # c,c1,hc
angle_coeff	 7 ba    2.68680   20.40330    1.53000    1.42000  # c,c1,oc
angle_coeff	 8 ba    8.01600    8.01600    1.53000    1.53000  # c,c3h,c
angle_coeff	 9 ba   11.42100   20.75400    1.53000    1.10100  # c,c3h,hc
angle_coeff	10 ba    2.68680   20.40330    1.53000    1.42000  # c,c3h,o3e
angle_coeff	11 ba   -2.81120   -2.81120    1.42000    1.42000  # c,o3e,c3h
angle_coeff	12 ba   -2.81120   -2.81120    1.42000    1.42000  # c,oc,c
angle_coeff	13 ba   -2.81120   -2.81120    1.42000    1.42000  # c,oc,c1
angle_coeff	14 ba    0.00000    0.00000    1.42000    0.96000  # c,oh,h
angle_coeff	15 ba   20.75400   11.42100    1.53000    1.10100  # c1,c,hc
angle_coeff	16 ba    2.68680   20.40330    1.53000    1.42000  # c1,c,oc
angle_coeff	17 ba    2.68680   20.40330    1.53000    1.42000  # c1,c,oh
angle_coeff	18 ba   11.42100   20.75400    1.53000    1.10100  # c3h,c,hc
angle_coeff	19 ba    2.68680   20.40330    1.53000    1.42000  # c3h,c,o3e
angle_coeff	20 ba   20.40330    2.68680    1.53000    1.42000  # c3h,c,oc
angle_coeff	21 ba   18.10300   18.10300    1.10100    1.10100  # hc,c,hc
angle_coeff	22 ba    4.61890   55.32700    1.10100    1.42000  # hc,c,o3e
angle_coeff	23 ba    4.61890   55.32700    1.10100    1.42000  # hc,c,oc
angle_coeff	24 ba    4.61890   55.32700    1.10100    1.42000  # hc,c,oh
angle_coeff	25 ba    4.61890   55.32700    1.10100    1.42000  # hc,c1,oc
angle_coeff	26 ba    4.61890   55.32700    1.10100    1.42000  # hc,c3h,o3e

# Dihedral Coeffs

dihedral_coeff	 1    0.00000    0.00000    0.03160    0.00000   -0.16810    0.00000  # c,c,c,hc
dihedral_coeff	 2    0.71370    0.00000    0.26600    0.00000   -0.25450    0.00000  # c,c,c,oc
dihedral_coeff	 3    0.00000    0.00000    0.05140    0.00000   -0.14300    0.00000  # c,c,c1,c
dihedral_coeff	 4    0.00000    0.00000    0.03160    0.00000   -0.16810    0.00000  # c,c,c1,hc
dihedral_coeff	 5   -0.52030    0.00000   -0.30280    0.00000   -0.34500    0.00000  # c,c,oc,c
dihedral_coeff	 6   -0.52030    0.00000   -0.30280    0.00000   -0.34500    0.00000  # c,c,oc,c1
dihedral_coeff	 7    0.00000    0.00000    0.03160    0.00000   -0.16810    0.00000  # c,c1,c,hc
dihedral_coeff	 8    0.71370    0.00000    0.26600    0.00000   -0.25450    0.00000  # c,c1,c,oc
dihedral_coeff	 9    0.71370    0.00000    0.26600    0.00000   -0.25450    0.00000  # c,c1,c,oh
dihedral_coeff	10   -0.52030    0.00000   -0.30280    0.00000   -0.34500    0.00000  # c,c1,oc,c
dihedral_coeff	11    0.00000    0.00000    0.03160    0.00000   -0.16810    0.00000  # c,c3h,c,hc
dihedral_coeff	12    0.71370    0.00000    0.26600    0.00000   -0.25450    0.00000  # c,c3h,c,o3e
dihedral_coeff	13    0.71370    0.00000    0.26600    0.00000   -0.25450    0.00000  # c,c3h,c,oc
dihedral_coeff	14   -0.52030    0.00000   -0.30280    0.00000   -0.34500    0.00000  # c,c3h,o3e,c
dihedral_coeff	15    0.53020    0.00000    0.00000    0.00000   -0.39660    0.00000  # c,o3e,c3h,hc
dihedral_coeff	16   -0.52030    0.00000   -0.30280    0.00000   -0.34500    0.00000  # c,oc,c,c1
dihedral_coeff	17   -0.52030    0.00000   -0.30280    0.00000   -0.34500    0.00000  # c,oc,c,c3h
dihedral_coeff	18    0.53020    0.00000    0.00000    0.00000   -0.39660    0.00000  # c,oc,c,hc
dihedral_coeff	19    0.53020    0.00000    0.00000    0.00000   -0.39660    0.00000  # c,oc,c1,hc
dihedral_coeff	20    0.00000    0.00000    0.05140    0.00000   -0.14300    0.00000  # c1,c,c,c1
dihedral_coeff	21    0.00000    0.00000    0.03160    0.00000   -0.16810    0.00000  # c1,c,c,hc
dihedral_coeff	22   -0.52030    0.00000   -0.30280    0.00000   -0.34500    0.00000  # c1,c,oc,c1
dihedral_coeff	23    0.00000    0.00000    0.00000    0.00000    0.13000  180.00000  # c1,c,oh,h
dihedral_coeff	24    0.53020    0.00000    0.00000    0.00000   -0.39660    0.00000  # c1,oc,c,hc
dihedral_coeff	25    0.53020    0.00000    0.00000    0.00000   -0.39660    0.00000  # c3h,o3e,c,hc
dihedral_coeff	26    0.00000    0.00000    0.00000    0.00000    0.13000  180.00000  # h,oh,c,hc
dihedral_coeff	27   -0.14320    0.00000    0.06170    0.00000   -0.10830    0.00000  # hc,c,c,hc
dihedral_coeff	28   -0.14350    0.00000    0.25300    0.00000   -0.09050    0.00000  # hc,c,c,oc
dihedral_coeff	29   -0.14320    0.00000    0.06170    0.00000   -0.10830    0.00000  # hc,c,c1,hc
dihedral_coeff	30   -0.14350    0.00000    0.25300    0.00000   -0.09050    0.00000  # hc,c,c1,oc
dihedral_coeff	31   -0.14320    0.00000    0.06170    0.00000   -0.10830    0.00000  # hc,c,c3h,hc
dihedral_coeff	32   -0.14350    0.00000    0.25300    0.00000   -0.09050    0.00000  # hc,c,c3h,o3e
dihedral_coeff	33   -0.14350    0.00000    0.25300    0.00000   -0.09050    0.00000  # hc,c1,c,oc
dihedral_coeff	34   -0.14350    0.00000    0.25300    0.00000   -0.09050    0.00000  # hc,c1,c,oh
dihedral_coeff	35   -0.14350    0.00000    0.25300    0.00000   -0.09050    0.00000  # hc,c3h,c,o3e
dihedral_coeff	36   -0.14350    0.00000    0.25300    0.00000   -0.09050    0.00000  # hc,c3h,c,oc
dihedral_coeff	37   -0.18200    0.00000   -0.10840    0.00000   -0.70470    0.00000  # o3e,c3h,c,oc
dihedral_coeff	38   -0.18200    0.00000   -0.10840    0.00000   -0.70470    0.00000  # oc,c,c1,oc
dihedral_coeff	39   -0.18200    0.00000   -0.10840    0.00000   -0.70470    0.00000  # oc,c1,c,oh

# MiddleBondTorsion Coeffs

dihedral_coeff	 1 mbt  -14.87900   -3.65810   -0.31380    1.53000  # c,c,c,hc
dihedral_coeff	 2 mbt  -21.88420   -7.67640   -0.68680    1.53000  # c,c,c,oc
dihedral_coeff	 3 mbt  -17.78700   -7.18770    0.00000    1.53000  # c,c,c1,c
dihedral_coeff	 4 mbt  -14.87900   -3.65810   -0.31380    1.53000  # c,c,c1,hc
dihedral_coeff	 5 mbt   -5.92880   -2.70070   -0.31750    1.42000  # c,c,oc,c
dihedral_coeff	 6 mbt   -5.92880   -2.70070   -0.31750    1.42000  # c,c,oc,c1
dihedral_coeff	 7 mbt  -14.87900   -3.65810   -0.31380    1.53000  # c,c1,c,hc
dihedral_coeff	 8 mbt  -21.88420   -7.67640   -0.68680    1.53000  # c,c1,c,oc
dihedral_coeff	 9 mbt  -21.88420   -7.67640   -0.68680    1.53000  # c,c1,c,oh
dihedral_coeff	10 mbt   -5.92880   -2.70070   -0.31750    1.42000  # c,c1,oc,c
dihedral_coeff	11 mbt  -14.87900   -3.65810   -0.31380    1.53000  # c,c3h,c,hc
dihedral_coeff	12 mbt  -21.88420   -7.67640   -0.68680    1.53000  # c,c3h,c,o3e
dihedral_coeff	13 mbt  -21.88420   -7.67640   -0.68680    1.53000  # c,c3h,c,oc
dihedral_coeff	14 mbt   -5.92880   -2.70070   -0.31750    1.42000  # c,c3h,o3e,c
dihedral_coeff	15 mbt   -6.80070   -4.65460   -1.41010    1.42000  # c,o3e,c3h,hc
dihedral_coeff	16 mbt   -5.92880   -2.70070   -0.31750    1.42000  # c,oc,c,c1
dihedral_coeff	17 mbt   -5.92880   -2.70070   -0.31750    1.42000  # c,oc,c,c3h
dihedral_coeff	18 mbt   -6.80070   -4.65460   -1.41010    1.42000  # c,oc,c,hc
dihedral_coeff	19 mbt   -6.80070   -4.65460   -1.41010    1.42000  # c,oc,c1,hc
dihedral_coeff	20 mbt  -17.78700   -7.18770    0.00000    1.53000  # c1,c,c,c1
dihedral_coeff	21 mbt  -14.87900   -3.65810   -0.31380    1.53000  # c1,c,c,hc
dihedral_coeff	22 mbt   -5.92880   -2.70070   -0.31750    1.42000  # c1,c,oc,c1
dihedral_coeff	23 mbt    0.00000    0.00000    0.00000    1.42000  # c1,c,oh,h
dihedral_coeff	24 mbt   -6.80070   -4.65460   -1.41010    1.42000  # c1,oc,c,hc
dihedral_coeff	25 mbt   -6.80070   -4.65460   -1.41010    1.42000  # c3h,o3e,c,hc
dihedral_coeff	26 mbt    0.00000    0.00000    0.00000    1.42000  # h,oh,c,hc
dihedral_coeff	27 mbt  -14.26100   -0.53220   -0.48640    1.53000  # hc,c,c,hc
dihedral_coeff	28 mbt  -16.79750   -1.22960   -0.27500    1.53000  # hc,c,c,oc
dihedral_coeff	29 mbt  -14.26100   -0.53220   -0.48640    1.53000  # hc,c,c1,hc
dihedral_coeff	30 mbt  -16.79750   -1.22960   -0.27500    1.53000  # hc,c,c1,oc
dihedral_coeff	31 mbt  -14.26100   -0.53220   -0.48640    1.53000  # hc,c,c3h,hc
dihedral_coeff	32 mbt  -16.79750   -1.22960   -0.27500    1.53000  # hc,c,c3h,o3e
dihedral_coeff	33 mbt  -16.79750   -1.22960   -0.27500    1.53000  # hc,c1,c,oc
dihedral_coeff	34 mbt  -16.79750   -1.22960   -0.27500    1.53000  # hc,c1,c,oh
dihedral_coeff	35 mbt  -16.79750   -1.22960   -0.27500    1.53000  # hc,c3h,c,o3e
dihedral_coeff	36 mbt  -16.79750   -1.22960   -0.27500    1.53000  # hc,c3h,c,oc
dihedral_coeff	37 mbt  -17.25850   -3.61570   -0.83640    1.53000  # o3e,c3h,c,oc
dihedral_coeff	38 mbt  -17.25850   -3.61570   -0.83640    1.53000  # oc,c,c1,oc
dihedral_coeff	39 mbt  -17.25850   -3.61570   -0.83640    1.53000  # oc,c1,c,oh

# EndBondTorsion Coeffs

dihedral_coeff	 1 ebt    0.08140    0.05910    0.22190    0.24860    0.24220   -0.09250    1.53000    1.10100  # c,c,c,hc
dihedral_coeff	 2 ebt   -0.31900    0.44110   -0.71740    1.15380    0.84090   -0.91380    1.53000    1.42000  # c,c,c,oc
dihedral_coeff	 3 ebt   -0.07320    0.00000    0.00000   -0.07320    0.00000    0.00000    1.53000    1.53000  # c,c,c1,c
dihedral_coeff	 4 ebt    0.08140    0.05910    0.22190    0.24860    0.24220   -0.09250    1.53000    1.10100  # c,c,c1,hc
dihedral_coeff	 5 ebt   -0.24560    1.05170   -0.77950    0.47410    1.26350    0.55760    1.53000    1.42000  # c,c,oc,c
dihedral_coeff	 6 ebt    0.47410    1.26350    0.55760   -0.24560    1.05170   -0.77950    1.53000    1.42000  # c,c,oc,c1
dihedral_coeff	 7 ebt    0.08140    0.05910    0.22190    0.24860    0.24220   -0.09250    1.53000    1.10100  # c,c1,c,hc
dihedral_coeff	 8 ebt   -0.31900    0.44110   -0.71740    1.15380    0.84090   -0.91380    1.53000    1.42000  # c,c1,c,oc
dihedral_coeff	 9 ebt   -0.31900    0.44110   -0.71740    1.15380    0.84090   -0.91380    1.53000    1.42000  # c,c1,c,oh
dihedral_coeff	10 ebt   -0.24560    1.05170   -0.77950    0.47410    1.26350    0.55760    1.53000    1.42000  # c,c1,oc,c
dihedral_coeff	11 ebt    0.08140    0.05910    0.22190    0.24860    0.24220   -0.09250    1.53000    1.10100  # c,c3h,c,hc
dihedral_coeff	12 ebt   -0.31900    0.44110   -0.71740    1.15380    0.84090   -0.91380    1.53000    1.42000  # c,c3h,c,o3e
dihedral_coeff	13 ebt   -0.31900    0.44110   -0.71740    1.15380    0.84090   -0.91380    1.53000    1.42000  # c,c3h,c,oc
dihedral_coeff	14 ebt   -0.24560    1.05170   -0.77950    0.47410    1.26350    0.55760    1.53000    1.42000  # c,c3h,o3e,c
dihedral_coeff	15 ebt   -0.60540    1.33390    0.96480   -0.16200    0.15640   -1.14080    1.42000    1.10100  # c,o3e,c3h,hc
dihedral_coeff	16 ebt   -0.24560    1.05170   -0.77950    0.47410    1.26350    0.55760    1.42000    1.53000  # c,oc,c,c1
dihedral_coeff	17 ebt    0.47410    1.26350    0.55760   -0.24560    1.05170   -0.77950    1.42000    1.53000  # c,oc,c,c3h
dihedral_coeff	18 ebt   -0.60540    1.33390    0.96480   -0.16200    0.15640   -1.14080    1.42000    1.10100  # c,oc,c,hc
dihedral_coeff	19 ebt   -0.60540    1.33390    0.96480   -0.16200    0.15640   -1.14080    1.42000    1.10100  # c,oc,c1,hc
dihedral_coeff	20 ebt   -0.07320    0.00000    0.00000   -0.07320    0.00000    0.00000    1.53000    1.53000  # c1,c,c,c1
dihedral_coeff	21 ebt    0.24860    0.24220   -0.09250    0.08140    0.05910    0.22190    1.53000    1.10100  # c1,c,c,hc
dihedral_coeff	22 ebt   -0.24560    1.05170   -0.77950    0.47410    1.26350    0.55760    1.53000    1.42000  # c1,c,oc,c1
dihedral_coeff	23 ebt    0.00000    0.00000    0.00000    0.00000    0.00000    0.00000    1.53000    0.96000  # c1,c,oh,h
dihedral_coeff	24 ebt   -0.16200    0.15640   -1.14080   -0.60540    1.33390    0.96480    1.42000    1.10100  # c1,oc,c,hc
dihedral_coeff	25 ebt   -0.60540    1.33390    0.96480   -0.16200    0.15640   -1.14080    1.42000    1.10100  # c3h,o3e,c,hc
dihedral_coeff	26 ebt    0.00000    0.00000    0.00000    0.00000    0.00000    0.00000    0.96000    1.10100  # h,oh,c,hc
dihedral_coeff	27 ebt    0.21300    0.31200    0.07770    0.21300    0.31200    0.07770    1.10100    1.10100  # hc,c,c,hc
dihedral_coeff	28 ebt    0.96810    0.95510    0.04360    0.59030    0.66690    0.85840    1.10100    1.42000  # hc,c,c,oc
dihedral_coeff	29 ebt    0.21300    0.31200    0.07770    0.21300    0.31200    0.07770    1.10100    1.10100  # hc,c,c1,hc
dihedral_coeff	30 ebt    0.96810    0.95510    0.04360    0.59030    0.66690    0.85840    1.10100    1.42000  # hc,c,c1,oc
dihedral_coeff	31 ebt    0.21300    0.31200    0.07770    0.21300    0.31200    0.07770    1.10100    1.10100  # hc,c,c3h,hc
dihedral_coeff	32 ebt    0.96810    0.95510    0.04360    0.59030    0.66690    0.85840    1.10100    1.42000  # hc,c,c3h,o3e
dihedral_coeff	33 ebt    0.96810    0.95510    0.04360    0.59030    0.66690    0.85840    1.10100    1.42000  # hc,c1,c,oc
dihedral_coeff	34 ebt    0.96810    0.95510    0.04360    0.59030    0.66690    0.85840    1.10100    1.42000  # hc,c1,c,oh
dihedral_coeff	35 ebt    0.96810    0.95510    0.04360    0.59030    0.66690    0.85840    1.10100    1.42000  # hc,c3h,c,o3e
dihedral_coeff	36 ebt    0.96810    0.95510    0.04360    0.59030    0.66690    0.85840    1.10100    1.42000  # hc,c3h,c,oc
dihedral_coeff	37 ebt    1.01650    0.75530   -0.46090    1.01650    0.75530   -0.46090    1.42000    1.42000  # o3e,c3h,c,oc
dihedral_coeff	38 ebt    1.01650    0.75530   -0.46090    1.01650    0.75530   -0.46090    1.42000    1.42000  # oc,c,c1,oc
dihedral_coeff	39 ebt    1.01650    0.75530   -0.46090    1.01650    0.75530   -0.46090    1.42000    1.42000  # oc,c1,c,oh

# AngleTorsion Coeffs

dihedral_coeff	 1 at    0.31130    0.45160   -0.19880   -0.24540    0.00000   -0.11360  112.67000  110.77000  # c,c,c,hc
dihedral_coeff	 2 at    0.56230   -0.30410   -0.40150    0.96720   -0.75660   -1.23310  112.67000  111.27000  # c,c,c,oc
dihedral_coeff	 3 at    0.38860   -0.31390    0.13890    0.38860   -0.31390    0.13890  112.67000  112.67000  # c,c,c1,c
dihedral_coeff	 4 at    0.31130    0.45160   -0.19880   -0.24540    0.00000   -0.11360  112.67000  110.77000  # c,c,c1,hc
dihedral_coeff	 5 at   -2.74660    1.48770   -0.89550    0.56760    0.94500    0.07030  111.27000  104.50000  # c,c,oc,c
dihedral_coeff	 6 at    0.56760    0.94500    0.07030   -2.74660    1.48770   -0.89550  111.27000  104.50000  # c,c,oc,c1
dihedral_coeff	 7 at    0.31130    0.45160   -0.19880   -0.24540    0.00000   -0.11360  112.67000  110.77000  # c,c1,c,hc
dihedral_coeff	 8 at    0.56230   -0.30410   -0.40150    0.96720   -0.75660   -1.23310  112.67000  111.27000  # c,c1,c,oc
dihedral_coeff	 9 at    0.56230   -0.30410   -0.40150    0.96720   -0.75660   -1.23310  112.67000  111.27000  # c,c1,c,oh
dihedral_coeff	10 at   -2.74660    1.48770   -0.89550    0.56760    0.94500    0.07030  111.27000  104.50000  # c,c1,oc,c
dihedral_coeff	11 at    0.31130    0.45160   -0.19880   -0.24540    0.00000   -0.11360  112.67000  110.77000  # c,c3h,c,hc
dihedral_coeff	12 at    0.56230   -0.30410   -0.40150    0.96720   -0.75660   -1.23310  112.67000  111.27000  # c,c3h,c,o3e
dihedral_coeff	13 at    0.56230   -0.30410   -0.40150    0.96720   -0.75660   -1.23310  112.67000  111.27000  # c,c3h,c,oc
dihedral_coeff	14 at   -2.74660    1.48770   -0.89550    0.56760    0.94500    0.07030  111.27000  104.50000  # c,c3h,o3e,c
dihedral_coeff	15 at   -1.82340    1.63930    0.51440   -0.77770    0.43400   -0.66530  104.50000  108.72800  # c,o3e,c3h,hc
dihedral_coeff	16 at   -2.74660    1.48770   -0.89550    0.56760    0.94500    0.07030  104.50000  111.27000  # c,oc,c,c1
dihedral_coeff	17 at    0.56760    0.94500    0.07030   -2.74660    1.48770   -0.89550  104.50000  111.27000  # c,oc,c,c3h
dihedral_coeff	18 at   -1.82340    1.63930    0.51440   -0.77770    0.43400   -0.66530  104.50000  108.72800  # c,oc,c,hc
dihedral_coeff	19 at   -1.82340    1.63930    0.51440   -0.77770    0.43400   -0.66530  104.50000  108.72800  # c,oc,c1,hc
dihedral_coeff	20 at    0.38860   -0.31390    0.13890    0.38860   -0.31390    0.13890  112.67000  112.67000  # c1,c,c,c1
dihedral_coeff	21 at   -0.24540    0.00000   -0.11360    0.31130    0.45160   -0.19880  112.67000  110.77000  # c1,c,c,hc
dihedral_coeff	22 at   -2.74660    1.48770   -0.89550    0.56760    0.94500    0.07030  111.27000  104.50000  # c1,c,oc,c1
dihedral_coeff	23 at    0.00000    0.00000    0.00000    0.00000    0.00000    0.00000  111.27000  109.00000  # c1,c,oh,h
dihedral_coeff	24 at   -0.77770    0.43400   -0.66530   -1.82340    1.63930    0.51440  104.50000  108.72800  # c1,oc,c,hc
dihedral_coeff	25 at   -1.82340    1.63930    0.51440   -0.77770    0.43400   -0.66530  104.50000  108.72800  # c3h,o3e,c,hc
dihedral_coeff	26 at    0.00000    0.00000    0.00000    0.00000    0.00000    0.00000  109.00000  108.72800  # h,oh,c,hc
dihedral_coeff	27 at   -0.80850    0.55690   -0.24660   -0.80850    0.55690   -0.24660  110.77000  110.77000  # hc,c,c,hc
dihedral_coeff	28 at    2.36680    2.49200   -1.01220   -0.18920    0.49180    0.72730  110.77000  111.27000  # hc,c,c,oc
dihedral_coeff	29 at   -0.80850    0.55690   -0.24660   -0.80850    0.55690   -0.24660  110.77000  110.77000  # hc,c,c1,hc
dihedral_coeff	30 at    2.36680    2.49200   -1.01220   -0.18920    0.49180    0.72730  110.77000  111.27000  # hc,c,c1,oc
dihedral_coeff	31 at   -0.80850    0.55690   -0.24660   -0.80850    0.55690   -0.24660  110.77000  110.77000  # hc,c,c3h,hc
dihedral_coeff	32 at    2.36680    2.49200   -1.01220   -0.18920    0.49180    0.72730  110.77000  111.27000  # hc,c,c3h,o3e
dihedral_coeff	33 at    2.36680    2.49200   -1.01220   -0.18920    0.49180    0.72730  110.77000  111.27000  # hc,c1,c,oc
dihedral_coeff	34 at    2.36680    2.49200   -1.01220   -0.18920    0.49180    0.72730  110.77000  111.27000  # hc,c1,c,oh
dihedral_coeff	35 at    2.36680    2.49200   -1.01220   -0.18920    0.49180    0.72730  110.77000  111.27000  # hc,c3h,c,o3e
dihedral_coeff	36 at    2.36680    2.49200   -1.01220   -0.18920    0.49180    0.72730  110.77000  111.27000  # hc,c3h,c,oc
dihedral_coeff	37 at    0.55110    0.97370   -0.66730    0.55110    0.97370   -0.66730  111.27000  111.27000  # o3e,c3h,c,oc
dihedral_coeff	38 at    0.55110    0.97370   -0.66730    0.55110    0.97370   -0.66730  111.27000  111.27000  # oc,c,c1,oc
dihedral_coeff	39 at    0.55110    0.97370   -0.66730    0.55110    0.97370   -0.66730  111.27000  111.27000  # oc,c1,c,oh

# AngleAngleTorsion Coeffs

dihedral_coeff	 1 aat  -16.16400  112.67000  110.77000  # c,c,c,hc
dihedral_coeff	 2 aat  -29.04200  112.67000  111.27000  # c,c,c,oc
dihedral_coeff	 3 aat  -22.04500  112.67000  112.67000  # c,c,c1,c
dihedral_coeff	 4 aat  -16.16400  112.67000  110.77000  # c,c,c1,hc
dihedral_coeff	 5 aat  -19.00590  111.27000  104.50000  # c,c,oc,c
dihedral_coeff	 6 aat  -19.00590  111.27000  104.50000  # c,c,oc,c1
dihedral_coeff	 7 aat  -16.16400  112.67000  110.77000  # c,c1,c,hc
dihedral_coeff	 8 aat  -29.04200  112.67000  111.27000  # c,c1,c,oc
dihedral_coeff	 9 aat  -29.04200  112.67000  111.27000  # c,c1,c,oh
dihedral_coeff	10 aat  -19.00590  111.27000  104.50000  # c,c1,oc,c
dihedral_coeff	11 aat  -16.16400  112.67000  110.77000  # c,c3h,c,hc
dihedral_coeff	12 aat  -29.04200  112.67000  111.27000  # c,c3h,c,o3e
dihedral_coeff	13 aat  -29.04200  112.67000  111.27000  # c,c3h,c,oc
dihedral_coeff	14 aat  -19.00590  111.27000  104.50000  # c,c3h,o3e,c
dihedral_coeff	15 aat  -16.44380  104.50000  108.72800  # c,o3e,c3h,hc
dihedral_coeff	16 aat  -19.00590  104.50000  111.27000  # c,oc,c,c1
dihedral_coeff	17 aat  -19.00590  104.50000  111.27000  # c,oc,c,c3h
dihedral_coeff	18 aat  -16.44380  104.50000  108.72800  # c,oc,c,hc
dihedral_coeff	19 aat  -16.44380  104.50000  108.72800  # c,oc,c1,hc
dihedral_coeff	20 aat  -22.04500  112.67000  112.67000  # c1,c,c,c1
dihedral_coeff	21 aat  -16.16400  112.67000  110.77000  # c1,c,c,hc
dihedral_coeff	22 aat  -19.00590  111.27000  104.50000  # c1,c,oc,c1
dihedral_coeff	23 aat    0.00000  111.27000  109.00000  # c1,c,oh,h
dihedral_coeff	24 aat  -16.44380  104.50000  108.72800  # c1,oc,c,hc
dihedral_coeff	25 aat  -16.44380  104.50000  108.72800  # c3h,o3e,c,hc
dihedral_coeff	26 aat    0.00000  109.00000  108.72800  # h,oh,c,hc
dihedral_coeff	27 aat  -12.56400  110.77000  110.77000  # hc,c,c,hc
dihedral_coeff	28 aat  -20.20060  110.77000  111.27000  # hc,c,c,oc
dihedral_coeff	29 aat  -12.56400  110.77000  110.77000  # hc,c,c1,hc
dihedral_coeff	30 aat  -20.20060  110.77000  111.27000  # hc,c,c1,oc
dihedral_coeff	31 aat  -12.56400  110.77000  110.77000  # hc,c,c3h,hc
dihedral_coeff	32 aat  -20.20060  110.77000  111.27000  # hc,c,c3h,o3e
dihedral_coeff	33 aat  -20.20060  110.77000  111.27000  # hc,c1,c,oc
dihedral_coeff	34 aat  -20.20060  110.77000  111.27000  # hc,c1,c,oh
dihedral_coeff	35 aat  -20.20060  110.77000  111.27000  # hc,c3h,c,o3e
dihedral_coeff	36 aat  -20.20060  110.77000  111.27000  # hc,c3h,c,oc
dihedral_coeff	37 aat  -14.04840  111.27000  111.27000  # o3e,c3h,c,oc
dihedral_coeff	38 aat  -14.04840  111.27000  111.27000  # oc,c,c1,oc
dihedral_coeff	39 aat  -14.04840  111.27000  111.27000  # oc,c1,c,oh

# BondBond13 Coeffs

dihedral_coeff	 1 bb13    0.00000    1.53000    1.10100  # c,c,c,hc
dihedral_coeff	 2 bb13    0.00000    1.53000    1.42000  # c,c,c,oc
dihedral_coeff	 3 bb13    0.00000    1.53000    1.53000  # c,c,c1,c
dihedral_coeff	 4 bb13    0.00000    1.53000    1.10100  # c,c,c1,hc
dihedral_coeff	 5 bb13    0.00000    1.53000    1.42000  # c,c,oc,c
dihedral_coeff	 6 bb13    0.00000    1.53000    1.42000  # c,c,oc,c1
dihedral_coeff	 7 bb13    0.00000    1.53000    1.10100  # c,c1,c,hc
dihedral_coeff	 8 bb13    0.00000    1.53000    1.42000  # c,c1,c,oc
dihedral_coeff	 9 bb13    0.00000    1.53000    1.42000  # c,c1,c,oh
dihedral_coeff	10 bb13    0.00000    1.53000    1.42000  # c,c1,oc,c
dihedral_coeff	11 bb13    0.00000    1.53000    1.10100  # c,c3h,c,hc
dihedral_coeff	12 bb13    0.00000    1.53000    1.42000  # c,c3h,c,o3e
dihedral_coeff	13 bb13    0.00000    1.53000    1.42000  # c,c3h,c,oc
dihedral_coeff	14 bb13    0.00000    1.53000    1.42000  # c,c3h,o3e,c
dihedral_coeff	15 bb13    0.00000    1.42000    1.10100  # c,o3e,c3h,hc
dihedral_coeff	16 bb13    0.00000    1.42000    1.53000  # c,oc,c,c1
dihedral_coeff	17 bb13    0.00000    1.42000    1.53000  # c,oc,c,c3h
dihedral_coeff	18 bb13    0.00000    1.42000    1.10100  # c,oc,c,hc
dihedral_coeff	19 bb13    0.00000    1.42000    1.10100  # c,oc,c1,hc
dihedral_coeff	20 bb13    0.00000    1.53000    1.53000  # c1,c,c,c1
dihedral_coeff	21 bb13    0.00000    1.53000    1.10100  # c1,c,c,hc
dihedral_coeff	22 bb13    0.00000    1.53000    1.42000  # c1,c,oc,c1
dihedral_coeff	23 bb13    0.00000    1.53000    0.96000  # c1,c,oh,h
dihedral_coeff	24 bb13    0.00000    1.42000    1.10100  # c1,oc,c,hc
dihedral_coeff	25 bb13    0.00000    1.42000    1.10100  # c3h,o3e,c,hc
dihedral_coeff	26 bb13    0.00000    0.96000    1.10100  # h,oh,c,hc
dihedral_coeff	27 bb13    0.00000    1.10100    1.10100  # hc,c,c,hc
dihedral_coeff	28 bb13    0.00000    1.10100    1.42000  # hc,c,c,oc
dihedral_coeff	29 bb13    0.00000    1.10100    1.10100  # hc,c,c1,hc
dihedral_coeff	30 bb13    0.00000    1.10100    1.42000  # hc,c,c1,oc
dihedral_coeff	31 bb13    0.00000    1.10100    1.10100  # hc,c,c3h,hc
dihedral_coeff	32 bb13    0.00000    1.10100    1.42000  # hc,c,c3h,o3e
dihedral_coeff	33 bb13    0.00000    1.10100    1.42000  # hc,c1,c,oc
dihedral_coeff	34 bb13    0.00000    1.10100    1.42000  # hc,c1,c,oh
dihedral_coeff	35 bb13    0.00000    1.10100    1.42000  # hc,c3h,c,o3e
dihedral_coeff	36 bb13    0.00000    1.10100    1.42000  # hc,c3h,c,oc
dihedral_coeff	37 bb13    0.00000    1.42000    1.42000  # o3e,c3h,c,oc
dihedral_coeff	38 bb13    0.00000    1.42000    1.42000  # oc,c,c1,oc
dihedral_coeff	39 bb13    0.00000    1.42000    1.42000  # oc,c1,c,oh

# Improper Coeffs

improper_coeff	 1    0.00000    0.00000  # c,c,c,hc
improper_coeff	 2    0.00000    0.00000  # c,c,c1,hc
improper_coeff	 3    0.00000    0.00000  # c,c,hc,c1
improper_coeff	 4    0.00000    0.00000  # c,c,hc,hc
improper_coeff	 5    0.00000    0.00000  # c,c,hc,oc
improper_coeff	 6    0.00000    0.00000  # c,c,oc,hc
improper_coeff	 7    0.00000    0.00000  # c,c1,hc,hc
improper_coeff	 8    0.00000    0.00000  # c,c1,hc,oc
improper_coeff	 9    0.00000    0.00000  # c,c1,hc,oh
improper_coeff	10    0.00000    0.00000  # c,c1,oc,hc
improper_coeff	11    0.00000    0.00000  # c,c3h,hc,hc
improper_coeff	12    0.00000    0.00000  # c,c3h,hc,o3e
improper_coeff	13    0.00000    0.00000  # c,c3h,hc,oc
improper_coeff	14    0.00000    0.00000  # c,c3h,o3e,hc
improper_coeff	15    0.00000    0.00000  # c,hc,hc,o3e
improper_coeff	16    0.00000    0.00000  # c,hc,hc,oc
improper_coeff	17    0.00000    0.00000  # c,hc,hc,oh
improper_coeff	18    0.00000    0.00000  # c1,c,c,c
improper_coeff	19    0.00000    0.00000  # c1,c,c,hc
improper_coeff	20    0.00000    0.00000  # c1,c,c,oc
improper_coeff	21    0.00000    0.00000  # c1,c,oc,hc
improper_coeff	22    0.00000    0.00000  # c3h,c,c,hc
improper_coeff	23    0.00000    0.00000  # c3h,c,c,o3e
improper_coeff	24    0.00000    0.00000  # c3h,c,hc,o3e
improper_coeff	25    0.00000    0.00000  # c3h,c,o3e,hc

# AngleAngle Coeffs

improper_coeff	 1 aa    0.00000    0.00000    0.11840  112.67000  110.77000  110.77000  # c,c,c,hc
improper_coeff	 2 aa    0.00000   -1.31990    0.00000  112.67000  110.77000  110.77000  # c,c,c1,hc
improper_coeff	 3 aa    0.00000   -1.31990    0.00000  110.77000  112.67000  110.77000  # c,c,hc,c1
improper_coeff	 4 aa    0.00000   -0.48250    0.00000  110.77000  110.77000  107.66000  # c,c,hc,hc
improper_coeff	 5 aa    3.91770    2.59260    0.00000  110.77000  111.27000  108.72800  # c,c,hc,oc
improper_coeff	 6 aa    0.00000    2.59260    3.91770  111.27000  110.77000  108.72800  # c,c,oc,hc
improper_coeff	 7 aa    0.27380   -0.48250    0.27380  110.77000  110.77000  107.66000  # c,c1,hc,hc
improper_coeff	 8 aa    3.91770    2.59260    0.16890  110.77000  111.27000  108.72800  # c,c1,hc,oc
improper_coeff	 9 aa    3.91770    2.59260    0.16890  110.77000  111.27000  108.72800  # c,c1,hc,oh
improper_coeff	10 aa    0.16890    2.59260    3.91770  111.27000  110.77000  108.72800  # c,c1,oc,hc
improper_coeff	11 aa    0.00000   -0.48250    0.00000  110.77000  110.77000  107.66000  # c,c3h,hc,hc
improper_coeff	12 aa    3.91770    2.59260    0.00000  110.77000  111.27000  108.72800  # c,c3h,hc,o3e
improper_coeff	13 aa    0.00000    2.59260    0.00000  110.77000  111.27000  108.72800  # c,c3h,hc,oc
improper_coeff	14 aa    0.00000    2.59260    3.91770  111.27000  110.77000  108.72800  # c,c3h,o3e,hc
improper_coeff	15 aa    2.42590    2.42590    2.12830  107.66000  108.72800  108.72800  # c,hc,hc,o3e
improper_coeff	16 aa    2.42590    2.42590    2.12830  107.66000  108.72800  108.72800  # c,hc,hc,oc
improper_coeff	17 aa    2.42590    2.42590    2.12830  107.66000  108.72800  108.72800  # c,hc,hc,oh
improper_coeff	18 aa   -0.17290   -0.17290   -0.17290  112.67000  112.67000  112.67000  # c1,c,c,c
improper_coeff	19 aa    0.00000    0.00000    0.11840  112.67000  110.77000  110.77000  # c1,c,c,hc
improper_coeff	20 aa   -0.83300   -0.83300   -3.57440  112.67000  111.27000  111.27000  # c1,c,c,oc
improper_coeff	21 aa    0.00000    2.59260    3.91770  111.27000  110.77000  108.72800  # c1,c,oc,hc
improper_coeff	22 aa    0.00000    0.00000    0.11840  112.67000  110.77000  110.77000  # c3h,c,c,hc
improper_coeff	23 aa   -0.83300   -0.83300   -3.57440  112.67000  111.27000  111.27000  # c3h,c,c,o3e
improper_coeff	24 aa    3.91770    2.59260    0.00000  110.77000  111.27000  108.72800  # c3h,c,hc,o3e
improper_coeff	25 aa    0.00000    2.59260    3.91770  111.27000  110.77000  108.72800  # c3h,c,o3e,hc

# ------------------------------- OPT Section -------------------------------
minimize 1.0e-5 1.0e-7 100000 400000
PPPM initialization ...
  using 12-bit tables for long-range coulomb (../kspace.cpp:342)
  G vector (1/distance) = 0.11665513
  grid = 4 4 4
  stencil order = 5
  estimated absolute RMS force accuracy = 0.24122568
  estimated relative force accuracy = 0.00072644397
  using double precision KISS FFT
  3d grid and FFT values/proc = 294 4
Generated 28 of 28 mixed pair_coeff terms from sixthpower/sixthpower mixing rule
Neighbor list info ...
  update: every = 1 steps, delay = 0 steps, check = yes
  max neighbors/atom: 2000, page size: 100000
  master list distance cutoff = 12
  ghost atom cutoff = 12
  binsize = 6, bins = 7 7 7
  1 neighbor lists, perpetual/occasional/extra = 1 0 0
  (1) pair lj/class2/coul/long, perpetual
      attributes: half, newton on
      pair build: half/bin/newton
      stencil: half/bin/3d
      bin: standard
WARNING: Inconsistent image flags (../domain.cpp:815)
  PPPM/cg optimization cutoff: 1e-05
  Total charged atoms: 100.0%
  Min/max charged atoms/proc: 100.0% 100.0%
Per MPI rank memory allocation (min/avg/max) = 16.62 | 16.62 | 16.63 Mbytes
   Step          Temp          E_pair         E_mol          TotEng         Press     
         0   590.86377      897.25628      11315.839      21035.21      -232.90118    
       112   590.86377      164.59691      3132.9982      12119.71       4135.1055    
Loop time of 1.15654 on 24 procs for 112 steps with 5010 atoms

99.2% CPU use with 24 MPI tasks x no OpenMP threads

Minimization stats:
  Stopping criterion = linesearch alpha is zero
  Energy initial, next-to-last, final = 
      12213.0955827968   3297.59513397391   3297.59513397391
  Force two-norm initial, final = 3324.3709 52.164869
  Force max component initial, final = 136.48056 7.4681131
  Final line search alpha, max atom move = 2.8632351e-12 2.1382964e-11
  Iterations, force evaluations = 112 282

MPI task timing breakdown:
Section |  min time  |  avg time  |  max time  |%varavg| %total
---------------------------------------------------------------
Pair    | 0.58776    | 0.71529    | 0.84554    |   7.8 | 61.85
Bond    | 0.16989    | 0.19055    | 0.21162    |   2.3 | 16.48
Kspace  | 0.063135   | 0.19727    | 0.33409    |  15.6 | 17.06
Neigh   | 0.008304   | 0.0083428  | 0.0083649  |   0.0 |  0.72
Comm    | 0.036829   | 0.037856   | 0.039251   |   0.4 |  3.27
Output  | 0          | 0          | 0          |   0.0 |  0.00
Modify  | 0          | 0          | 0          |   0.0 |  0.00
Other   |            | 0.00722    |            |       |  0.62

Nlocal:         208.75 ave         228 max         187 min
Histogram: 1 0 3 2 4 4 4 4 0 2
Nghost:        4669.08 ave        4733 max        4602 min
Histogram: 3 0 2 2 6 1 2 4 3 1
Neighs:        69416.6 ave       82907 max       58070 min
Histogram: 2 2 3 2 6 2 4 0 2 1

Total # of neighbors = 1665998
Ave neighs/atom = 332.53453
Ave special neighs/atom = 6.1964072
Neighbor list builds = 3
Dangerous builds = 0
# ------------------------------- Run Section -------------------------------
#

timestep 0.25
neighbor        2.0 bin
neigh_modify    delay 0 every 1 check yes

thermo_style custom step temp pe evdwl ecoul ebond eangle edihed eimp density vol
thermo 20000

variable        Rho equal density
variable        Temp equal temp
variable        Volume equal vol
fix             fDENS all ave/time 100 100 300000 v_Temp v_Rho v_Volume file temp_vs_density.txt
fix def1 all print 100 "${Temp} ${Rho} ${Volume} " file press.dat screen no

label           loop
variable        a loop 26
variable        b equal 600-20*($a-1)
variable        b equal 600-20*(1-1)
fix             fMOM all momentum 100 linear 1 1 1 angular
fix             fNPT all npt temp $b $b $(100.0*dt) iso 1 1 $(100.0*dt)
fix             fNPT all npt temp 600 $b $(100.0*dt) iso 1 1 $(100.0*dt)
fix             fNPT all npt temp 600 600 $(100.0*dt) iso 1 1 $(100.0*dt)
fix             fNPT all npt temp 600 600 25 iso 1 1 $(100.0*dt)
fix             fNPT all npt temp 600 600 25 iso 1 1 25
run             1200000
PPPM initialization ...
  using 12-bit tables for long-range coulomb (../kspace.cpp:342)
  G vector (1/distance) = 0.11665513
  grid = 4 4 4
  stencil order = 5
  estimated absolute RMS force accuracy = 0.24122568
  estimated relative force accuracy = 0.00072644397
  using double precision KISS FFT
  3d grid and FFT values/proc = 294 4
Generated 28 of 28 mixed pair_coeff terms from sixthpower/sixthpower mixing rule
WARNING: Inconsistent image flags (../domain.cpp:815)
Per MPI rank memory allocation (min/avg/max) = 15.49 | 15.5 | 15.5 Mbytes
   Step          Temp          PotEng         E_vdwl         E_coul         E_bond        E_angle        E_dihed        E_impro        Density         Volume    
       112   590.86377      3297.5951     -1183.0884      2488.4295      267.43613      8720.1677     -5814.7968     -39.808759      0.93009739     54483.448    
     20000   606.45397      12448.834     -369.67763      2517.7716      3704.9418      13066.3       -5264.6019     -64.977842      0.8984541      56402.339    
     40000   604.67439      12464.578     -502.9356       2530.016       3713.9623      13147.356     -5230.2783     -54.881026      0.92407007     54838.82     
     60000   597.11579      12327.825     -461.21477      2533.9931      3693.5981      13066.571     -5302.6371     -61.328365      0.92163202     54983.889    
     80000   597.47066      12319.285     -464.00157      2526.2979      3758.5905      13020.059     -5316.359      -64.256563      0.93022337     54476.069    
    100000   601.18311      12157.098     -512.18961      2502.1948      3749.1459      13028.88      -5406.7911     -64.558407      0.93553132     54166.987    
    120000   598.20384      12323.575     -401.71946      2502.7956      3676.8973      13094.448     -5338.6818     -68.467211      0.91533866     55361.927    
    140000   602.20361      12293.92      -403.62963      2528.4096      3657.486       12975.825     -5261.5635     -61.665186      0.9191124      55134.619    
    160000   597.3357       12250.342     -526.13882      2529.901       3770.7858      13056.168     -5372.1286     -67.918739      0.93610112     54134.015    
    180000   600.70472      12146.488     -483.38744      2518.2996      3601.8421      13003.324     -5293.8176     -59.323419      0.922674       54921.795    
    200000   614.66658      12172.956     -452.21119      2522.4871      3714.7011      12924.862     -5326.6683     -69.475837      0.90744689     55843.392    
    220000   596.67736      12313.779     -399.19279      2515.8349      3717.813       12926.416     -5238.2434     -68.103884      0.91778485     55214.37     
    240000   599.3229       12221.811     -555.56204      2490.1383      3719.0846      13132.992     -5358.8228     -65.730039      0.93195559     54374.814    
    260000   605.07894      12334.371     -419.98604      2508.0015      3677.6204      13118.951     -5339.2312     -69.86219       0.91998041     55082.6      
    280000   583.0122       12412.543     -381.54949      2524.1814      3631.5141      13099.882     -5250.7158     -69.481817      0.91956147     55107.695    
    300000   598.70401      12315.885     -441.72532      2512.1564      3840.4494      12920.947     -5313.9731     -60.909175      0.94079931     53863.679    
    320000   606.73566      12198.139     -477.4321       2503.9896      3655.9942      13063.924     -5337.7128     -70.400184      0.9262603      54709.148    
    340000   591.84635      11981.963     -485.92881      2508.4082      3589.7119      12968.236     -5399.8606     -57.443333      0.92293325     54906.368    
    360000   599.65871      12327.129     -477.13175      2508.356       3744.0332      13068.736     -5325.2364     -50.610335      0.93393023     54259.848    
    380000   613.51716      12228.488     -498.89111      2508.8889      3696.3069      12928.491     -5204.1583     -62.345332      0.92077747     55034.918    
    400000   592.87435      12104.766     -421.37387      2512.2765      3593.0615      13009.105     -5380.2169     -65.736812      0.92512006     54776.579    
    420000   590.12857      12266.127     -469.51283      2506.9576      3757.4281      13001.98      -5321.85       -68.836733      0.94867924     53416.276    
    440000   590.4623       12292.926     -478.97314      2508.1483      3753.2363      12941.937     -5222.0185     -70.830393      0.92379759     54854.995    
    460000   594.38495      12270.888     -418.51582      2507.4327      3743.0851      12968.9       -5323.0437     -66.385079      0.92032343     55062.069    
    480000   596.09755      12210.364     -401.32413      2503.3425      3647.6172      12948.167     -5282.8604     -64.29951       0.91995209     55084.295    
    500000   598.97906      12312.732     -528.78278      2498.2516      3728.3207      13201.768     -5382.5147     -64.059732      0.92822634     54593.271    
    520000   595.04251      12043.37      -445.66016      2485.0988      3580.1688      12956.845     -5323.4551     -68.667824      0.9191343      55133.306    
    540000   605.51831      12341.141     -417.261        2512.7187      3663.7918      13043.595     -5258.6812     -63.430527      0.93358162     54280.109    
    560000   595.99014      12170.874     -449.45609      2504.8052      3563.4212      13129.947     -5363.6413     -73.873519      0.91703383     55259.589    
    580000   588.5569       12275.056     -394.92585      2510.3392      3696.3373      12955.986     -5283.4724     -69.45408       0.91857826     55166.679    
    600000   594.40855      12275.267     -514.67449      2493.4849      3722.7745      13085.238     -5314.8607     -55.97039       0.93006378     54485.416    
    620000   598.20777      12381.444     -399.85424      2521.7225      3648.2747      13131.404     -5309.3116     -70.3607        0.91149733     55595.24     
    640000   612.5751       12153.061     -454.14894      2518.9654      3528.7458      12999.578     -5241.1897     -57.475067      0.93164439     54392.978    
    660000   592.5275       12162.544     -565.64653      2505.3852      3660.2192      13082.842     -5322.5521     -56.933621      0.93443055     54230.796    
    680000   604.61448      12276.558     -450.85921      2525.3278      3783.8227      13001.403     -5375.2552     -67.064828      0.92217559     54951.479    
    700000   602.13759      12384.824     -462.30641      2492.0587      3826.0065      13134.897     -5397.4341     -67.523394      0.91973259     55097.441    
    720000   591.07473      12291.866     -421.72368      2500.0811      3655.4024      13076.821     -5321.0435     -56.295636      0.91420349     55430.671    
    740000   590.54893      12253.976     -496.38984      2523.413       3749.058       13018.135     -5330.3632     -68.791468      0.92360085     54866.68     
    760000   601.93396      12353.542     -487.90139      2527.6082      3852.6828      12949.192     -5287.6792     -59.951045      0.92396307     54845.171    
    780000   609.85876      12403.432     -434.05531      2541.3058      3783.9153      13052.726     -5327.8639     -71.422197      0.91604286     55319.368    
    800000   596.4609       12219.285     -541.04756      2498.076       3836.8564      12961.872     -5325.2753     -70.841822      0.93375936     54269.777    
    820000   597.59711      12193.019     -444.57555      2532.2599      3644.135       13062.531     -5395.2707     -65.587679      0.93428082     54239.487    
    840000   604.80483      12309.906     -459.52702      2496.4786      3679.2567      13074.16      -5274.6461     -64.475564      0.91156586     55591.06     
    860000   607.32196      12283.57      -414.57642      2520.1655      3574.7504      12945.37      -5135.1429     -66.090953      0.92007284     55077.066    
    880000   585.49051      12488.485     -464.03745      2540.957       3871.5675      12963.527     -5211.455      -70.61341       0.91868167     55160.47     
    900000   596.14077      12280.325     -493.28028      2526.6991      3725.7548      12993.496     -5265.9635     -66.542056      0.92910742     54541.5      
    920000   597.44054      12206.524     -560.17736      2520.6037      3710.5567      13075.016     -5338.6234     -60.891252      0.93002987     54487.403    
    940000   610.54397      12337.373     -456.11257      2532.5899      3714.6203      13054.696     -5295.1648     -72.840875      0.92738719     54642.67     
    960000   610.18912      12230.851     -594.1946       2522.5893      3734.5963      13058.183     -5276.2544     -72.893613      0.94935562     53378.219    
    980000   591.44506      12351.184     -435.24979      2502.8517      3775.4899      13008.331     -5297.1571     -62.683525      0.93566691     54159.137    
   1000000   609.75232      12200.954     -498.32018      2482.5739      3701.7982      13021.847     -5300.2551     -64.856238      0.92773847     54621.98     
   1020000   603.92959      12297.034     -452.13653      2513.6428      3708.1578      13023.338     -5289.1792     -65.419292      0.93039999     54465.727    
   1040000   597.9352       12235.42      -453.55441      2488.6277      3690.6102      13054.105     -5338.2671     -66.447792      0.93742864     54057.355    
   1060000   588.66867      12264.845     -523.94623      2500.3914      3680.2518      13088.221     -5278.24       -61.490762      0.93584105     54149.059    
   1080000   598.01595      12134.135     -533.18421      2501.9234      3673.6789      12994.041     -5293.363      -67.886145      0.92693895     54669.094    
   1100000   603.99968      12239.832     -448.14157      2499.5189      3638.6529      13050.929     -5300.9618     -59.048133      0.92097604     55023.052    
   1120000   603.09438      12236.775     -500.58371      2504.0182      3611.3752      13185.025     -5359.8241     -62.331735      0.93097712     54431.963    
   1140000   601.41376      12509.52      -485.57916      2519.2153      3858.4737      13133.266     -5304.6185     -70.889827      0.92717577     54655.13     
   1160000   596.01776      12076.626     -461.96699      2507.703       3655.9565      12861.2       -5282.0612     -64.262164      0.92864399     54568.718    
   1180000   599.50194      12132.913     -455.18739      2524.1591      3606.2391      12962.109     -5304.236      -58.963336      0.93229815     54354.835    
   1200000   602.81876      12330.831     -463.83847      2527.0129      3658.1716      13134.286     -5325.5963     -57.454344      0.93012701     54481.713    
   1200112   607.99292      12357.755     -477.20597      2508.6513      3626.5589      13271.377     -5353.2199     -76.546919      0.92766914     54626.062    
Loop time of 3895.94 on 24 procs for 1200000 steps with 5010 atoms

Performance: 6.653 ns/day, 3.607 hours/ns, 308.013 timesteps/s, 1.543 Matom-step/s
99.5% CPU use with 24 MPI tasks x no OpenMP threads

MPI task timing breakdown:
Section |  min time  |  avg time  |  max time  |%varavg| %total
---------------------------------------------------------------
Pair    | 1829.9     | 2052.6     | 2268.5     | 272.8 | 52.69
Bond    | 648.96     | 719.71     | 815.76     | 130.0 | 18.47
Kspace  | 645.86     | 899.13     | 1109.5     | 433.2 | 23.08
Neigh   | 48.92      | 48.98      | 49.041     |   0.5 |  1.26
Comm    | 127.01     | 129.01     | 131.62     |  11.9 |  3.31
Output  | 0.0098699  | 0.010465   | 0.0235     |   2.7 |  0.00
Modify  | 32.32      | 33.991     | 35.42      |  16.2 |  0.87
Other   |            | 12.5       |            |       |  0.32

Nlocal:         208.75 ave         227 max         188 min
Histogram: 3 1 2 1 2 4 3 2 4 2
Nghost:        4618.71 ave        4657 max        4582 min
Histogram: 3 2 4 1 2 2 3 2 3 2
Neighs:          69341 ave       79829 max       61169 min
Histogram: 2 5 3 2 4 2 0 2 3 1

Total # of neighbors = 1664183
Ave neighs/atom = 332.17226
Ave special neighs/atom = 6.1964072
Neighbor list builds = 16524
Dangerous builds = 0
unfix           fNPT
unfix           fMOM
next            a
jump            SELF loop
variable        a loop 26
variable        b equal 600-20*($a-1)
variable        b equal 600-20*(2-1)
fix             fMOM all momentum 100 linear 1 1 1 angular
fix             fNPT all npt temp $b $b $(100.0*dt) iso 1 1 $(100.0*dt)
fix             fNPT all npt temp 580 $b $(100.0*dt) iso 1 1 $(100.0*dt)
fix             fNPT all npt temp 580 580 $(100.0*dt) iso 1 1 $(100.0*dt)
fix             fNPT all npt temp 580 580 25 iso 1 1 $(100.0*dt)
fix             fNPT all npt temp 580 580 25 iso 1 1 25
run             1200000
PPPM initialization ...
  using 12-bit tables for long-range coulomb (../kspace.cpp:342)
  G vector (1/distance) = 0.11658148
  grid = 4 4 4
  stencil order = 5
  estimated absolute RMS force accuracy = 0.24132474
  estimated relative force accuracy = 0.00072674229
  using double precision KISS FFT
  3d grid and FFT values/proc = 294 4
Generated 28 of 28 mixed pair_coeff terms from sixthpower/sixthpower mixing rule
WARNING: Inconsistent image flags (../domain.cpp:815)
Per MPI rank memory allocation (min/avg/max) = 15.5 | 15.5 | 15.5 Mbytes
   Step          Temp          PotEng         E_vdwl         E_coul         E_bond        E_angle        E_dihed        E_impro        Density         Volume    
   1200112   607.99292      12357.754     -477.20597      2507.9302      3626.5589      13271.377     -5353.2199     -76.546919      0.92766914     54626.062    
   1220000   572.62181      11973.602     -455.72959      2513.8118      3594.1671      12756.652     -5229.6408     -65.729914      0.92980254     54500.725    
   1240000   579.70829      11885.503     -480.18841      2475.7867      3645.5817      12676.579     -5229.5214     -63.501038      0.9247461      54798.731    
   1260000   581.02819      11974.912     -482.05104      2484.6652      3588.5304      12910.829     -5330.0215     -56.273919      0.91003972     55684.286    
   1280000   580.05533      11809.286     -516.26008      2516.7139      3570.3648      12768.463     -5337.8359     -51.907901      0.91417897     55432.157    
   1300000   576.57443      11950.568     -511.15478      2511.0318      3589.9597      12852.213     -5280.4185     -70.615169      0.9315415      54398.985    
   1320000   569.2622       11994.386     -554.85018      2521.4002      3643.8547      12834.131     -5233.6217     -76.154833      0.93667916     54100.609    
   1340000   564.18572      12002.483     -506.1979       2501.5196      3569.1303      13036.14      -5391.3911     -68.004327      0.9372353      54068.506    
   1360000   570.29576      11897.575     -578.39185      2499.3753      3568.6162      12910.989     -5298.9842     -63.744531      0.94723644     53497.638    
   1380000   577.79211      11981.728     -480.23279      2510.259       3604.4789      12923.673     -5366.6816     -69.43204       0.92507788     54779.077    
   1400000   582.27518      11990.769     -556.10579      2514.8709      3597.7953      12987.262     -5351.0883     -62.450713      0.92530145     54765.841    
   1420000   575.30595      12011.388     -463.62286      2480.2774      3547.402       12952.279     -5303.222      -62.39743       0.92745294     54638.797    
   1440000   588.81947      12128.849     -430.87071      2517.9945      3568.7295      12966.935     -5291.8649     -62.826679      0.92355947     54869.138    
   1460000   580.35909      11859.808     -511.96935      2517.9517      3493.0041      12944.957     -5377.2898     -66.15545       0.91076417     55639.993    
   1480000   573.11301      11850.21      -531.77498      2484.823       3574.302       12933.11      -5405.2331     -64.481397      0.93072824     54446.518    
   1500000   587.55765      12145.238     -459.67494      2511.4779      3684.5439      12846.28      -5237.5037     -60.189602      0.93561461     54162.165    
   1520000   589.93808      11988.157     -491.09348      2491.1325      3627.2487      12923.065     -5358.1089     -64.426266      0.92587215     54732.084    
   1540000   577.99339      12044.976     -458.33513      2514.5719      3612.2642      13009.204     -5436.2858     -56.143048      0.92874509     54562.778    
   1560000   570.50797      11971.972     -521.37474      2532.4516      3608.5015      12868.23      -5308.7512     -66.503891      0.93845963     53997.967    
   1580000   573.24679      12121.191     -536.82119      2515.6719      3605.8371      13033.836     -5283.5505     -73.325594      0.93942029     53942.749    
   1600000   579.603        12109.893     -392.55451      2514.1182      3563.0287      12909.022     -5277.0666     -65.801059      0.91446106     55415.058    
   1620000   581.76166      12032.289     -468.88009      2534.6362      3656.3061      12797.731     -5283.254      -64.672923      0.92127852     55004.987    
   1640000   585.03933      12025.06      -559.20065      2527.2687      3653.8399      12931.806     -5327.5446     -61.530756      0.91664272     55283.167    
   1660000   589.70492      11927.261     -552.70627      2504.5844      3526.5419      12987.241     -5331.0389     -68.69375       0.93361184     54278.353    
   1680000   588.82496      11862.575     -491.73599      2474.4816      3578.9023      12762.505     -5262.2244     -59.445973      0.92906536     54543.969    
   1700000   578.08861      11883.002     -453.21196      2486.3181      3465.3485      12925.441     -5341.03       -60.320386      0.93286674     54321.706    
   1720000   585.68731      11825.629     -546.48863      2486.8469      3543.9954      12818.967     -5279.6987     -57.905682      0.93393978     54259.293    
   1740000   582.99774      11879.892     -579.23554      2497.7594      3614.7708      12807.472     -5252.8922     -68.254503      0.94413274     53673.504    
   1760000   587.21452      12077.761     -453.42037      2504.8179      3660.2631      12827.373     -5261.9114     -59.393912      0.92762844     54628.459    
   1780000   572.50767      12000.021     -432.07658      2530.561       3552.2988      12939.738     -5382.9628     -68.841185      0.93298495     54314.823    
   1800000   578.34497      11857.507     -530.69032      2496.7522      3540.3649      12912.263     -5363.2928     -57.314577      0.94610826     53561.431    
   1820000   578.33054      11836.989     -508.79855      2504.9615      3505.5824      12831.859     -5304.3751     -50.889454      0.93500476     54197.491    
   1840000   570.25556      11958.336     -459.45004      2498.3331      3556.722       12882.888     -5316.9286     -63.509687      0.93274646     54328.711    
   1860000   573.71642      11843.137     -558.65899      2504.5769      3643.6351      12824.072     -5365.9386     -64.939818      0.94368566     53698.932    
   1880000   577.69509      11890.787     -508.21828      2501.0284      3480.554       13001.732     -5376.1904     -67.381923      0.94169955     53812.187    
   1900000   580.31422      11942.104     -500.47866      2493.6588      3580.2971      12915.785     -5349.2593     -58.504879      0.94090918     53857.39     
   1920000   582.12026      12026.645     -451.12946      2510.115       3655.3853      12829.688     -5311.0735     -65.407483      0.9233112      54883.893    
   1940000   585.21302      11795.717     -487.30382      2497.3327      3502.8269      12848.562     -5358.4811     -68.071951      0.93272523     54329.947    
   1960000   580.20435      11908.264     -561.23734      2516.5757      3622.6254      12959.116     -5424.6048     -64.336466      0.93211483     54365.525    
   1980000   587.98207      11948.73      -519.66207      2510.649       3558.2899      12992.611     -5389.8152     -63.645524      0.93073025     54446.401    
   2000000   579.16717      11938.692     -513.73713      2501.8427      3627.1334      12891.71      -5357.3807     -70.865843      0.91828693     55184.181    
   2020000   576.16074      11786.345     -626.94008      2487.6946      3590.2664      12924.373     -5383.2872     -66.284219      0.94062569     53873.622    
   2040000   601.21765      11818.123     -575.47511      2501.0132      3588.3942      12858.544     -5345.3479     -69.793333      0.9392454      53952.793    
   2060000   581.80192      11985.925     -474.31849      2511.6583      3668.2444      12734.791     -5248.9881     -65.532863      0.93577357     54152.964    
   2080000   590.90172      11944.212     -543.17112      2503.706       3669.7667      12807.524     -5278.2253     -74.840551      0.95207535     53225.737    
   2100000   579.95381      12003.253     -478.21839      2524.6964      3546.0616      12873.813     -5260.0866     -63.680469      0.93492262     54202.253    
   2120000   580.58921      11820.316     -522.92182      2515.266       3509.3009      12777.172     -5251.3383     -66.13079       0.93603547     54137.812    
   2140000   592.83588      12039.471     -435.06341      2523.8016      3583.5075      12902.008     -5320.1788     -75.613761      0.91916199     55131.645    
   2160000   584.31079      11842.084     -492.10675      2497.8829      3499.2661      12924.645     -5388.1316     -59.339741      0.93813206     54016.822    
   2180000   588.3126       11736.231     -446.40663      2475.9658      3508.3839      12757.722     -5353.0889     -66.379524      0.93666178     54101.612    
   2200000   588.19229      11859.088     -531.59051      2516.0834      3614.5531      12784.555     -5314.6763     -71.325786      0.95413764     53110.694    
   2220000   576.58137      11914.854     -453.78381      2526.9186      3518.3998      12925.096     -5396.7126     -65.94832       0.93041632     54464.772    
   2240000   582.82096      11894.005     -489.70198      2511.0429      3569.7588      12815.697     -5323.8097     -48.330581      0.92107006     55017.435    
   2260000   576.49809      11913.077     -514.74672      2501.5569      3612.6755      12807.1       -5296.3426     -57.261696      0.92214353     54953.39     
   2280000   574.34013      11710.119     -499.12549      2481.3741      3494.7166      12869.754     -5433.3374     -64.317237      0.95086575     53293.446    
   2300000   578.76236      12083.987     -523.45748      2531.9343      3682.1571      12911.577     -5314.5088     -64.500156      0.93601593     54138.942    
   2320000   570.10921      11994.855     -555.90329      2500.8483      3769.3295      12780.076     -5297.1022     -62.127686      0.93110405     54424.543    
   2340000   580.3732       11944.453     -502.92265      2492.3631      3617.8843      12854.997     -5320.0761     -57.505519      0.92398441     54843.904    
   2360000   575.40142      11969.896     -479.02214      2495.441       3584.6572      12854.867     -5282.4342     -63.200727      0.92603445     54722.492    
   2380000   583.17642      11932.544     -434.95891      2504.1364      3600.4935      12771.074     -5299.0155     -68.841005      0.9301614      54479.698    
   2400000   581.13419      11928.007     -422.90009      2510.9099      3587.5159      12867.035     -5410.4088     -62.771712      0.92389261     54849.354    
   2400112   580.99233      11894.814     -445.37257      2513.1744      3573.7423      12833.359     -5365.1879     -73.632889      0.92535744     54762.528    
Loop time of 3948.18 on 24 procs for 1200000 steps with 5010 atoms

Performance: 6.565 ns/day, 3.656 hours/ns, 303.937 timesteps/s, 1.523 Matom-step/s
99.5% CPU use with 24 MPI tasks x no OpenMP threads

MPI task timing breakdown:
Section |  min time  |  avg time  |  max time  |%varavg| %total
---------------------------------------------------------------
Pair    | 1865.5     | 2069.2     | 2369.6     | 322.0 | 52.41
Bond    | 654.7      | 715.93     | 811.13     | 149.7 | 18.13
Kspace  | 586.2      | 942.47     | 1181.8     | 533.9 | 23.87
Neigh   | 44.573     | 44.611     | 44.643     |   0.3 |  1.13
Comm    | 126.57     | 128.89     | 131.66     |  12.2 |  3.26
Output  | 0.0044588  | 0.0050605  | 0.017953   |   3.8 |  0.00
Modify  | 32.485     | 34.309     | 36.021     |  16.9 |  0.87
Other   |            | 12.73      |            |       |  0.32

Nlocal:         208.75 ave         231 max         186 min
Histogram: 1 1 3 3 4 3 4 1 2 2
Nghost:        4602.79 ave        4681 max        4528 min
Histogram: 2 1 2 3 5 4 2 3 0 2
Neighs:        68864.1 ave       81285 max       58093 min
Histogram: 1 2 3 5 3 3 4 1 0 2

Total # of neighbors = 1652738
Ave neighs/atom = 329.88782
Ave special neighs/atom = 6.1964072
Neighbor list builds = 15212
Dangerous builds = 0
unfix           fNPT
unfix           fMOM
next            a
jump            SELF loop
variable        a loop 26
variable        b equal 600-20*($a-1)
variable        b equal 600-20*(3-1)
fix             fMOM all momentum 100 linear 1 1 1 angular
fix             fNPT all npt temp $b $b $(100.0*dt) iso 1 1 $(100.0*dt)
fix             fNPT all npt temp 560 $b $(100.0*dt) iso 1 1 $(100.0*dt)
fix             fNPT all npt temp 560 560 $(100.0*dt) iso 1 1 $(100.0*dt)
fix             fNPT all npt temp 560 560 25 iso 1 1 $(100.0*dt)
fix             fNPT all npt temp 560 560 25 iso 1 1 25
run             1200000
PPPM initialization ...
  using 12-bit tables for long-range coulomb (../kspace.cpp:342)
  G vector (1/distance) = 0.11651122
  grid = 4 4 4
  stencil order = 5
  estimated absolute RMS force accuracy = 0.24141896
  estimated relative force accuracy = 0.00072702602
  using double precision KISS FFT
  3d grid and FFT values/proc = 294 4
Generated 28 of 28 mixed pair_coeff terms from sixthpower/sixthpower mixing rule
WARNING: Inconsistent image flags (../domain.cpp:815)
Per MPI rank memory allocation (min/avg/max) = 15.5 | 15.5 | 15.5 Mbytes
   Step          Temp          PotEng         E_vdwl         E_coul         E_bond        E_angle        E_dihed        E_impro        Density         Volume    
   2400112   580.99233      11894.802     -445.37257      2512.4759      3573.7423      12833.359     -5365.1879     -73.632889      0.92535744     54762.528    
   2420000   553.46641      11523.903     -587.10218      2494.3668      3425.0873      12680.094     -5277.6137     -71.438367      0.93100319     54430.439    
   2440000   554.00642      11714.09      -526.89218      2504.0591      3495.1544      12759.817     -5307.1123     -71.469707      0.93582429     54150.029    
   2460000   552.16593      11393.711     -493.46444      2486.5068      3343.2112      12606.31      -5344.7623     -63.525344      0.95257996     53197.542    
   2480000   562.96055      11570.396     -552.64851      2467.4622      3428.7568      12805.95      -5377.4507     -61.577755      0.94048958     53881.418    
   2500000   555.34435      11693.053     -510.45398      2507.3325      3484.0764      12778.766     -5369.8358     -56.698689      0.92544211     54757.517    
   2520000   568.42043      11542.783     -537.27756      2538.9028      3371.8781      12705.048     -5337.1083     -59.397201      0.94767787     53472.719    
   2540000   553.18008      11442.856     -539.97057      2510.7964      3399.1655      12624.845     -5345.0589     -66.515621      0.93282237     54324.29     
   2560000   565.25621      11644.527     -494.15574      2502.9472      3465.3125      12735.898     -5361.1144     -64.969765      0.94062962     53873.397    
   2580000   554.88749      11522.407     -523.58697      2495.1001      3454.9927      12757.984     -5456.8623     -65.343501      0.94337026     53716.886    
   2600000   567.08535      11474.773     -528.65573      2483.4161      3482.0444      12693.742     -5453.8742     -62.502707      0.93857913     53991.092    
   2620000   559.92477      11456.048     -579.6197       2518.9141      3427.1516      12589.358     -5288.2145     -72.051825      0.94737891     53489.593    
   2640000   551.17455      11455.309     -584.60704      2517.2432      3364.2247      12640.977     -5285.6706     -57.503527      0.95486332     53070.331    
   2660000   561.4038       11540.536     -638.41452      2535.8287      3551.9446      12686.811     -5389.5956     -68.323499      0.94649548     53539.518    
   2680000   565.57199      11579.294     -611.72707      2502.5344      3509.6615      12758.926     -5372.3118     -67.658797      0.94085932     53860.244    
   2700000   560.92544      11678.747     -470.55853      2489.0556      3582.4931      12630.756     -5350.0162     -64.475797      0.9350813      54193.055    
   2720000   558.76209      11476.273     -519.63153      2500.084       3430.6489      12630.064     -5370.035      -58.364019      0.95040579     53319.238    
   2740000   563.64448      11624.259     -595.2934       2492.9185      3510.4103      12759.635     -5342.1563     -64.538493      0.94879326     53409.857    
   2760000   555.478        11531.54      -593.58779      2472.7128      3474.1893      12813.315     -5433.8361     -64.723764      0.94717747     53500.969    
   2780000   564.06342      11408.788     -636.8655       2521.4953      3399.4577      12597.469     -5270.7042     -62.549859      0.95192801     53233.976    
   2800000   556.95317      11590.917     -577.19163      2489.1084      3596.5602      12642.921     -5355.8907     -66.694808      0.9479181      53459.168    
   2820000   562.29596      11635.288     -545.0638       2503.298       3437.1049      12751.257     -5307.9979     -63.290925      0.93602818     54138.234    
   2840000   549.76281      11657.667     -554.49276      2481.19        3544.5432      12829.023     -5434.4089     -68.415262      0.93419806     54244.292    
   2860000   572.04002      11581.339     -599.0387       2514.8408      3537.439       12701.828     -5362.7363     -72.206935      0.95185964     53237.799    
   2880000   547.18893      11606.461     -556.85448      2516.5891      3626.6941      12658.679     -5429.4394     -69.233539      0.93364619     54276.355    
   2900000   554.0836       11563.986     -539.88023      2501.2111      3453.738       12765.12      -5410.8687     -67.252229      0.94498423     53625.141    
   2920000   560.1865       11587.286     -504.23219      2501.0556      3438.1442      12787.939     -5427.8053     -67.723396      0.945793       53579.285    
   2940000   550.51417      11481.012     -672.10709      2501.1297      3420.6495      12790.877     -5355.703      -63.922752      0.94816567     53445.209    
   2960000   564.48326      11549.297     -471.7239       2497.45        3388.7871      12715.818     -5380.6279     -60.683522      0.94553626     53593.833    
   2980000   557.07139      11461.831     -583.13472      2475.3435      3468.8672      12711.958     -5409.5123     -62.046712      0.9347191      54214.055    
   3000000   572.72592      11617.931     -564.44513      2516.1065      3536.9058      12702.584     -5368.8501     -64.784973      0.93863779     53987.718    
   3020000   559.74649      11779.272     -614.62555      2506.0438      3519.1939      12839.404     -5268.3169     -64.618531      0.94556313     53592.31     
   3040000   559.7368       11511.623     -546.05535      2538.5337      3446.3125      12706.72      -5437.7089     -57.331641      0.92556017     54750.533    
   3060000   569.84279      11470.12      -566.70067      2468.2043      3558.8964      12658.509     -5444.741      -64.68525       0.95157239     53253.87     
   3080000   564.49258      11587.938     -542.93592      2504.2655      3540.8184      12693.257     -5404.1429     -63.691979      0.94018378     53898.943    
   3100000   559.27888      11525.878     -515.27807      2494.3808      3342.0292      12752.114     -5343.6464     -63.786492      0.93665336     54102.099    
   3120000   554.41967      11617.845     -563.06784      2459.1582      3542.3783      12686.223     -5301.6222     -65.954714      0.94262329     53759.453    
   3140000   553.36788      11443.544     -556.7806       2492.9958      3354.4774      12658.507     -5308.7293     -57.22329       0.95884444     52849.983    
   3160000   558.72894      11575.952     -497.98519      2503.9555      3440.7203      12640.641     -5316.7098     -56.46874       0.93779762     54036.086    
   3180000   555.78878      11561.027     -560.78727      2480.8497      3461.5505      12788.902     -5416.8137     -54.549113      0.94275637     53751.864    
   3200000   562.48985      11544.756     -556.23958      2489.4668      3458.3461      12813.307     -5458.1146     -64.163677      0.95693996     52955.164    
   3220000   567.73435      11315.321     -574.55994      2509.6712      3414.611       12555.357     -5383.4827     -66.813817      0.94949531     53370.366    
   3240000   551.55618      11773.123     -591.96621      2482.9969      3580.3582      12833.777     -5326.8716     -66.408463      0.93126953     54414.872    
   3260000   562.45307      11639.875     -527.98451      2492.1831      3380.0321      12856.392     -5353.6212     -68.250934      0.92995654     54491.7      
   3280000   560.36586      11412.605     -612.2676       2494.3044      3493.2657      12639.523     -5401.3863     -62.432096      0.95552425     53033.623    
   3300000   556.04251      11561.053     -624.23911      2497.8199      3394.0842      12793.254     -5299.1606     -61.92994       0.93976044     53923.224    
   3320000   552.36021      11430.592     -563.27461      2492.6453      3549.2371      12557.727     -5397.7719     -68.604042      0.9476208      53475.939    
   3340000   560.33493      11557.062     -606.19209      2487.9274      3528.9535      12768.765     -5416.1651     -66.457048      0.93677929     54094.826    
   3360000   558.47582      11741.302     -499.42824      2494.1885      3551.0533      12799.999     -5394.8675     -69.667013      0.93806462     54020.706    
   3380000   560.39791      11621.303     -573.01704      2491.569       3608.6365      12672.219     -5389.6059     -50.458843      0.9395769      53933.757    
   3400000   553.44453      11468.484     -558.08039      2491.7342      3411.206       12743.846     -5418.5789     -62.327157      0.94800468     53454.285    
   3420000   555.08228      11549.204     -593.24481      2479.3251      3540.9069      12733.076     -5407.047      -65.418714      0.93738855     54059.667    
   3440000   555.32995      11637.556     -612.75108      2495.9996      3532.5597      12814.943     -5387.0218     -67.491716      0.93353145     54283.027    
   3460000   549.5219       11569.341     -532.23243      2514.9008      3446.4033      12701.708     -5360.9975     -61.236184      0.934088       54250.683    
   3480000   551.7502       11677.561     -529.24963      2486.1959      3449.888       12811.953     -5339.2334     -63.921528      0.93101631     54429.672    
   3500000   553.68142      11416.513     -594.7813       2500.3926      3425.9855      12702.65      -5411.7604     -66.294933      0.94572314     53583.243    
   3520000   567.62166      11513.486     -612.86898      2503.621       3439.0503      12746.304     -5354.9956     -68.205602      0.9494249      53374.324    
   3540000   565.57403      11595.278     -585.20465      2513.3709      3482.4696      12786.053     -5401.2989     -60.775658      0.93611529     54133.196    
   3560000   557.18964      11626.674     -529.52308      2502.2106      3413.1247      12803.035     -5363.8187     -59.554695      0.93889327     53973.028    
   3580000   565.45714      11359.016     -603.36949      2475.4968      3493.4119      12527.097     -5322.4355     -71.182204      0.95408628     53113.553    
   3600000   554.22409      11412.315     -576.81899      2493.5385      3415.8527      12569.214     -5284.8496     -64.854841      0.9479316      53458.406    
   3600112   548.27398      11363.097     -609.57269      2481.6167      3420.9553      12624.556     -5349.6129     -64.653142      0.9435356      53707.473    
Loop time of 3936.41 on 24 procs for 1200000 steps with 5010 atoms

Performance: 6.585 ns/day, 3.645 hours/ns, 304.847 timesteps/s, 1.527 Matom-step/s
99.5% CPU use with 24 MPI tasks x no OpenMP threads

MPI task timing breakdown:
Section |  min time  |  avg time  |  max time  |%varavg| %total
---------------------------------------------------------------
Pair    | 1850.4     | 2093.3     | 2385       | 298.4 | 53.18
Bond    | 668.18     | 715.65     | 762.48     | 100.6 | 18.18
Kspace  | 571.31     | 909.54     | 1189.7     | 469.3 | 23.11
Neigh   | 42.434     | 42.481     | 42.511     |   0.3 |  1.08
Comm    | 127.44     | 129.32     | 132.26     |  11.4 |  3.29
Output  | 0.0035877  | 0.0039222  | 0.01118    |   2.4 |  0.00
Modify  | 31.843     | 33.705     | 35.139     |  17.0 |  0.86
Other   |            | 12.42      |            |       |  0.32

Nlocal:         208.75 ave         228 max         191 min
Histogram: 2 1 3 3 3 5 1 4 1 1
Nghost:        4705.33 ave        4747 max        4656 min
Histogram: 1 2 1 4 2 3 4 2 3 2
Neighs:        70661.7 ave       82829 max       63390 min
Histogram: 5 4 4 2 3 1 0 1 1 3

Total # of neighbors = 1695881
Ave neighs/atom = 338.4992
Ave special neighs/atom = 6.1964072
Neighbor list builds = 14547
Dangerous builds = 0
unfix           fNPT
unfix           fMOM
next            a
jump            SELF loop
variable        a loop 26
variable        b equal 600-20*($a-1)
variable        b equal 600-20*(4-1)
fix             fMOM all momentum 100 linear 1 1 1 angular
fix             fNPT all npt temp $b $b $(100.0*dt) iso 1 1 $(100.0*dt)
fix             fNPT all npt temp 540 $b $(100.0*dt) iso 1 1 $(100.0*dt)
fix             fNPT all npt temp 540 540 $(100.0*dt) iso 1 1 $(100.0*dt)
fix             fNPT all npt temp 540 540 25 iso 1 1 $(100.0*dt)
fix             fNPT all npt temp 540 540 25 iso 1 1 25
run             1200000
PPPM initialization ...
  using 12-bit tables for long-range coulomb (../kspace.cpp:342)
  G vector (1/distance) = 0.11705967
  grid = 4 4 4
  stencil order = 5
  estimated absolute RMS force accuracy = 0.24067575
  estimated relative force accuracy = 0.00072478786
  using double precision KISS FFT
  3d grid and FFT values/proc = 294 4
Generated 28 of 28 mixed pair_coeff terms from sixthpower/sixthpower mixing rule
WARNING: Inconsistent image flags (../domain.cpp:815)
Per MPI rank memory allocation (min/avg/max) = 15.5 | 15.5 | 15.5 Mbytes
   Step          Temp          PotEng         E_vdwl         E_coul         E_bond        E_angle        E_dihed        E_impro        Density         Volume    
   3600112   548.27398      11363.381     -609.57269      2487.2538      3420.9553      12624.556     -5349.6129     -64.653142      0.9435356      53707.473    
   3620000   538.77312      11239.84      -587.59225      2486.664       3406.5026      12551.715     -5407.4496     -64.568848      0.92809266     54601.135    
   3640000   541.33003      11062.007     -510.54235      2509.1383      3220.9644      12344.694     -5300.9526     -56.103492      0.93718884     54071.187    
   3660000   540.30379      11228.391     -639.8548       2503.4469      3463.0322      12455.872     -5339.6078     -68.876942      0.95878075     52853.494    
   3680000   533.54771      11311.997     -598.25501      2512.8303      3416.1205      12568.748     -5373.271      -70.15951       0.93835304     54004.101    
   3700000   550.14702      11187.715     -667.47372      2504.0214      3324.5909      12535.967     -5302.6503     -61.136547      0.96279004     52633.399    
   3720000   519.46206      11142.124     -600.35731      2531.3124      3315.7024      12453.627     -5357.3232     -57.098932      0.95582056     53017.182    
   3740000   538.47528      11159.588     -617.47375      2494.994       3311.9904      12566.921     -5384.882      -66.831453      0.95871118     52857.329    
   3760000   550.0124       11232.365     -618.97886      2481.0612      3369.1688      12624.16      -5414.9196     -62.409788      0.9571259      52944.876    
   3780000   525.62018      11179.975     -525.89095      2471.7238      3311.1844      12482.144     -5340.8048     -72.35025       0.96990572     52247.256    
   3800000   548.33231      11013.624     -615.97783      2468.8025      3305.1246      12402.57      -5337.4021     -64.577025      0.95919954     52830.418    
   3820000   526.06969      11184.795     -670.54499      2496.1739      3432.9207      12356.469     -5218.3609     -68.054954      0.96366438     52585.644    
   3840000   533.07073      11193.523     -664.46785      2492.601       3436.862       12578.544     -5442.8547     -64.724979      0.95300564     53173.78     
   3860000   541.37392      11115.007     -735.59932      2517.9664      3288.8201      12632.342     -5374.6332     -70.68227       0.96348867     52595.235    
   3880000   547.87259      10878.043     -687.20633      2522.9435      3303.2896      12283.467     -5333.6151     -65.50671       0.96864942     52315.018    
   3900000   542.86031      11067.918     -593.56131      2492.6126      3233.5752      12581.157     -5434.9391     -65.839652      0.9504013      53319.49     
   3920000   542.56464      11136.653     -708.95745      2495.6697      3304.9632      12573.733     -5316.9153     -67.175098      0.94897506     53399.625    
[...]
  using double precision KISS FFT
  3d grid and FFT values/proc = 294 4
Generated 28 of 28 mixed pair_coeff terms from sixthpower/sixthpower mixing rule
WARNING: Inconsistent image flags (../domain.cpp:815)
Per MPI rank memory allocation (min/avg/max) = 15.5 | 15.5 | 15.51 Mbytes
   Step          Temp          PotEng         E_vdwl         E_coul         E_bond        E_angle        E_dihed        E_impro        Density         Volume    
  22800112   240.14867      6019.8442     -1358.7303      2503.1247      1575.9214      10338.493     -5806.1977     -52.750083      1.0674824      47471.425    
  22820000   219.3961       5745.7099     -1412.4581      2491.0313      1539.3718      10166.244     -5805.8261     -52.536686      1.0760894      47091.733    
  22840000   216.4593       5743.0658     -1366.1537      2480.7734      1462.5932      10154.313     -5756.4701     -51.317723      1.0800366      46919.624    
  22860000   220.30172      5679.4405     -1418.6212      2495.0392      1465.0831      10192.619     -5822.5554     -52.636555      1.0761402      47089.509    
  22880000   220.29706      5828.0307     -1394.7718      2493.1415      1521.9788      10203.049     -5769.7129     -45.626271      1.0781822      47000.325    
  22900000   222.04984      5711.4093     -1382.485       2478.1349      1471.9186      10144.163     -5771.0307     -49.529768      1.0750431      47137.563    
  22920000   220.71843      5695.6743     -1443.6925      2493.1065      1452.718       10151.59      -5729.1017     -48.823564      1.07945        46945.12     
  22940000   220.82037      5732.7607     -1361.7464      2481.7341      1445.2896      10152.424     -5760.6751     -44.609199      1.0766135      47068.806    
  22960000   215.33442      5749.2872     -1391.8843      2490.2888      1430.8479      10235.331     -5782.8748     -52.089412      1.0753027      47126.185    
  22980000   217.82046      5745.2187     -1420.5158      2489.9058      1448.552       10264.655     -5810.9743     -46.726874      1.0745164      47160.671    
  23000000   222.94242      5762.925      -1402.2013      2492.2203      1457.6531      10220.778     -5776.4837     -49.085737      1.0759779      47096.612    
  23020000   223.12962      5767.6248     -1414.1118      2488.7622      1514.9218      10187.005     -5779.8531     -49.211578      1.076186       47087.504    
  23040000   219.65306      5793.107      -1379.2592      2473.9496      1500.0881      10224.837     -5797.9607     -48.755111      1.0754405      47120.145    
  23060000   220.51047      5736.852      -1388.563       2483.7792      1450.1524      10202.986     -5784.2301     -47.095992      1.0790264      46963.552    
  23080000   220.36401      5789.5771     -1408.9392      2499.2683      1485.204       10251.999     -5810.2984     -47.803531      1.0679932      47448.722    
  23100000   216.85924      5732.604      -1376.9673      2491.6087      1420.1686      10219.562     -5792.7183     -48.923341      1.0748846      47144.516    
  23120000   222.60782      5703.6436     -1415.5689      2479.4578      1508.9138      10151.045     -5791.3252     -48.968501      1.0744877      47161.93     
  23140000   221.29414      5756.1582     -1418.7144      2494.4691      1449.5762      10225.592     -5770.8594     -44.17498       1.0720827      47267.726    
  23160000   213.18222      5740.799      -1374.5026      2488.8477      1408.381       10256.261     -5799.4454     -58.679403      1.0733242      47213.055    
  23180000   219.27904      5718.4767     -1419.7788      2484.9025      1479.58        10210.123     -5805.6458     -50.797175      1.0745961      47157.171    
  23200000   220.76112      5687.5052     -1391.774       2489.2686      1441.6386      10217.79      -5841.616      -47.60589       1.0778097      47016.569    
  23220000   219.91415      5711.5811     -1399.7997      2477.307       1452.1915      10217.802     -5806.7124     -50.313979      1.0732907      47214.525    
  23240000   220.56097      5747.3841     -1342.2633      2495.3343      1459.064       10115.839     -5754.1781     -46.774908      1.072036       47269.787    
  23260000   220.37235      5745.9189     -1390.5153      2478.4135      1459.9654      10205.824     -5777.609      -50.435395      1.0739139      47187.129    
  23280000   215.91015      5734.3638     -1389.904       2493.1292      1488.2447      10133.481     -5760.0376     -50.909035      1.081789       46843.62     
  23300000   225.78546      5762.9263     -1409.4743      2506.0407      1456.9608      10224.46      -5789.3778     -46.120804      1.0753618      47123.594    
  23320000   221.87393      5739.7427     -1397.0442      2481.6692      1474.1743      10193.913     -5782.8002     -50.610243      1.0765756      47070.464    
  23340000   221.92737      5805.6056     -1404.8643      2489.0398      1493.9992      10266.806     -5808.6821     -50.723816      1.0764406      47076.368    
  23360000   220.16186      5706.2636     -1435.1289      2487.3447      1448.5276      10237.948     -5803.9822     -48.932012      1.0729316      47230.328    
  23380000   218.30962      5670.5256     -1391.5939      2489.9174      1424.703       10174.295     -5793.1384     -53.92525       1.0745291      47160.112    
  23400000   217.7252       5723.0266     -1382.2632      2485.1667      1475.8526      10172.266     -5799.3298     -48.913294      1.0737313      47195.153    
  23420000   218.63172      5703.131      -1355.6763      2490.2694      1468.2226      10137.374     -5810.5132     -47.357655      1.0776008      47025.682    
  23440000   222.67068      5648.7627     -1418.5281      2485.9064      1460.8065      10106.264     -5760.8578     -44.970446      1.0755405      47115.765    
  23460000   224.35541      5749.064      -1391.2036      2488.894       1498.4109      10184.307     -5799.8975     -52.196288      1.075281       47127.135    
  23480000   219.44538      5769.7513     -1388.1532      2497.906       1500.2471      10182.4       -5792.3257     -50.225613      1.0803052      46907.961    
  23500000   219.62485      5713.983      -1389.314       2503.1554      1479.6085      10160.449     -5810.2614     -49.535004      1.0788387      46971.721    
  23520000   218.56381      5729.5441     -1375.7045      2487.1138      1445.3777      10165.154     -5762.6692     -49.541673      1.0783466      46993.158    
  23540000   220.87234      5760.888      -1388.1873      2498.0579      1446.8245      10255.718     -5818.1884     -53.54988       1.0786862      46978.363    
  23560000   215.39318      5674.2038     -1415.5309      2482.3639      1430.6259      10196.853     -5787.4554     -52.784439      1.0800156      46920.536    
  23580000   221.25375      5791.3581     -1386.3684      2490.4847      1477.6765      10194.802     -5759.375      -46.116002      1.0795057      46942.702    
  23600000   217.40113      5723.1426     -1423.0026      2490.3751      1452.9917      10213.134     -5777.5092     -52.853905      1.0726297      47243.624    
  23620000   219.69245      5743.5064     -1383.3428      2493.2105      1470.0149      10205.377     -5816.6845     -44.863717      1.0667571      47503.702    
  23640000   217.45455      5736.6732     -1426.9415      2491.9332      1460.7592      10241.742     -5806.1358     -45.127059      1.0701369      47353.675    
  23660000   221.61649      5701.6385     -1389.9504      2488.5026      1448.8188      10198.019     -5813.8891     -50.021814      1.0774627      47031.709    
  23680000   224.50482      5778.2441     -1388.8203      2487.1883      1477.1064      10187.756     -5753.9359     -51.253911      1.0715015      47293.366    
  23700000   218.67717      5612.1452     -1400.99        2480.7576      1440.996       10091.65      -5772.9681     -47.935418      1.0676031      47466.06     
  23720000   224.08061      5772.1786     -1378.2793      2493.7591      1453.0234      10186.388     -5754.1206     -48.760096      1.0725538      47246.966    
  23740000   220.1952       5750.507      -1402.6457      2482.9722      1507.1873      10198.236     -5809.3727     -46.940888      1.073866       47189.232    
  23760000   221.2507       5697.2577     -1377.0061      2479.3708      1447.5265      10209.593     -5828.6666     -53.909504      1.0796811      46935.073    
  23780000   219.36822      5731.0459     -1400.8815      2475.7141      1499.2743      10176.037     -5789.6276     -50.007186      1.0794607      46944.658    
  23800000   221.62461      5765.511      -1379.6888      2491.3986      1468.16        10176.076     -5759.7828     -51.066869      1.0718523      47277.888    
  23820000   221.28454      5732.6343     -1387.969       2484.3397      1457.125       10141.152     -5735.3913     -47.138068      1.0744075      47165.449    
  23840000   215.21258      5717.5143     -1408.12        2489.5046      1475.4645      10160.331     -5771.0702     -48.261985      1.0761336      47089.798    
  23860000   216.98156      5708.1551     -1411.7146      2491.7556      1461.9935      10168.537     -5772.357      -50.80984       1.0797612      46931.594    
  23880000   217.618        5618.1665     -1383.7561      2466.5229      1404.4005      10161.787     -5801.786      -49.051157      1.0782012      46999.497    
  23900000   219.77161      5703.8209     -1404.5573      2486.3574      1484.7016      10167.393     -5804.2518     -46.703777      1.0793166      46950.923    
  23920000   220.11342      5753.1938     -1440.6626      2491.9232      1481.4891      10209.749     -5763.395      -46.345934      1.0809358      46880.592    
  23940000   217.77897      5730.7965     -1412.5343      2476.4305      1444.0845      10222.884     -5778.1019     -42.3508        1.0765349      47072.242    
  23960000   224.5993       5723.9522     -1398.4308      2489.0867      1469.7987      10215.829     -5820.6438     -51.415952      1.0734704      47206.624    
  23980000   220.62098      5749.7794     -1411.2089      2496.1026      1461.6364      10191.035     -5759.6727     -48.361014      1.0733522      47211.822    
  24000000   222.8413       5725.98       -1372.2096      2500.8976      1451.7203      10170.474     -5796.3698     -49.058386      1.0767943      47060.905    
  24000112   218.24881      5750.5451     -1418.266       2491.6881      1444.2273      10204.532     -5744.8364     -47.230529      1.0756285      47111.91     
Loop time of 4031.86 on 24 procs for 1200000 steps with 5010 atoms

Performance: 6.429 ns/day, 3.733 hours/ns, 297.629 timesteps/s, 1.491 Matom-step/s
99.5% CPU use with 24 MPI tasks x no OpenMP threads

MPI task timing breakdown:
Section |  min time  |  avg time  |  max time  |%varavg| %total
---------------------------------------------------------------
Pair    | 2175       | 2388.7     | 2573.8     | 229.4 | 59.25
Bond    | 649.04     | 707.88     | 767.39     | 114.0 | 17.56
Kspace  | 555.38     | 732.71     | 994.86     | 439.5 | 18.17
Neigh   | 18.516     | 18.535     | 18.548     |   0.2 |  0.46
Comm    | 134.57     | 136.59     | 139.86     |  13.3 |  3.39
Output  | 0.0052523  | 0.0057493  | 0.016928   |   3.1 |  0.00
Modify  | 32.237     | 34.294     | 36.018     |  19.0 |  0.85
Other   |            | 13.14      |            |       |  0.33

Nlocal:         208.75 ave         226 max         194 min
Histogram: 3 1 3 1 3 7 3 2 0 1
Nghost:        5110.54 ave        5150 max        5064 min
Histogram: 2 0 2 2 4 5 2 3 2 2
Neighs:        80143.2 ave       88384 max       69026 min
Histogram: 1 1 1 2 5 3 4 1 3 3

Total # of neighbors = 1923438
Ave neighs/atom = 383.91976
Ave special neighs/atom = 6.1964072
Neighbor list builds = 6269
Dangerous builds = 0
unfix           fNPT
unfix           fMOM
next            a
jump            SELF loop
variable        a loop 26
variable        b equal 600-20*($a-1)
variable        b equal 600-20*(21-1)
fix             fMOM all momentum 100 linear 1 1 1 angular
fix             fNPT all npt temp $b $b $(100.0*dt) iso 1 1 $(100.0*dt)
fix             fNPT all npt temp 200 $b $(100.0*dt) iso 1 1 $(100.0*dt)
fix             fNPT all npt temp 200 200 $(100.0*dt) iso 1 1 $(100.0*dt)
fix             fNPT all npt temp 200 200 25 iso 1 1 $(100.0*dt)
fix             fNPT all npt temp 200 200 25 iso 1 1 25
run             1200000
PPPM initialization ...
  using 12-bit tables for long-range coulomb (../kspace.cpp:342)
  G vector (1/distance) = 0.12078784
  grid = 4 4 4
  stencil order = 5
  estimated absolute RMS force accuracy = 0.23516556
  estimated relative force accuracy = 0.00070819411
  using double precision KISS FFT
  3d grid and FFT values/proc = 294 4
Generated 28 of 28 mixed pair_coeff terms from sixthpower/sixthpower mixing rule
WARNING: Inconsistent image flags (../domain.cpp:815)
Per MPI rank memory allocation (min/avg/max) = 15.5 | 15.51 | 15.51 Mbytes
   Step          Temp          PotEng         E_vdwl         E_coul         E_bond        E_angle        E_dihed        E_impro        Density         Volume    
  24000112   218.24881      5750.6484     -1418.266       2493.9176      1444.2273      10204.532     -5744.8364     -47.230529      1.0756285      47111.91     
  24020000   195.78487      5500.1433     -1394.0358      2491.481       1384.2622      10127.026     -5876.7728     -50.238996      1.0807102      46890.38     
  24040000   200.66297      5409.258      -1410.8837      2485.2144      1331.6429      9987.1701     -5754.6574     -47.42868       1.077368       47035.845    
  24060000   203.10706      5376.9454     -1435.5261      2485.5294      1296.5114      10055.691     -5794.1017     -49.107331      1.0846106      46721.758    
  24080000   204.8348       5411.4183     -1436.5453      2487.953       1375.9374      10038.229     -5827.2502     -44.583411      1.0778086      47016.615    
  24100000   195.90335      5497.8224     -1465.0509      2501.0726      1362.0779      10122.541     -5792.7167     -47.824661      1.0810827      46874.222    
  24120000   199.32139      5432.736      -1417.9589      2477.9293      1359.9227      10028.179     -5784.7172     -48.296156      1.0802546      46910.156    
  24140000   200.99169      5419.8778     -1423.9332      2478.923       1350.9164      10050.936     -5804.1615     -50.616413      1.0787887      46973.902    
  24160000   200.80859      5459.3957     -1437.8585      2501.0365      1324.4566      10094.608     -5796.9242     -44.027691      1.0791935      46956.28     
  24180000   199.31627      5514.4376     -1426.4739      2506.9446      1368.6203      10118.212     -5822.7528     -47.855677      1.0750657      47136.572    
  24200000   201.5737       5408.3075     -1428.8973      2491.2068      1358.8554      10063.847     -5848.6993     -46.116141      1.0785749      46983.212    
  24220000   202.28205      5400.2447     -1422.9409      2493.2814      1336.035       10040.325     -5819.5268     -45.298855      1.0804572      46901.36     
  24240000   192.89761      5450.4059     -1429.6757      2480.9016      1368.1773      10065.374     -5806.3601     -46.29264       1.0744507      47163.555    
  24260000   198.79176      5368.1199     -1436.0423      2478.5323      1365.7037      9999.5126     -5807.7991     -50.38041       1.0762056      47086.645    
  24280000   198.92815      5382.9601     -1457.2407      2491.8564      1374.574       9988.8696     -5781.2527     -52.014685      1.0791141      46959.734    
  24300000   199.35143      5408.7905     -1432.4529      2491.8322      1402.2082      9966.472      -5789.0659     -48.088882      1.0796756      46935.313    
  24320000   201.14094      5394.2188     -1433.134       2487.5228      1339.0364      10030.281     -5797.6418     -49.767085      1.0817402      46845.731    
  24340000   199.77624      5396.74       -1451.9376      2498.6666      1316.5229      10036.487     -5776.3269     -45.272485      1.0846725      46719.089    
  24360000   196.89975      5328.5304     -1414.7968      2489.5193      1295.8291      9973.4333     -5786.6742     -47.039397      1.0798478      46927.83     
  24380000   204.84627      5441.9987     -1435.1908      2494.8225      1387.2857      10047.732     -5821.9781     -48.797133      1.0790567      46962.234    
  24400000   201.01674      5408.3911     -1433.9991      2481.3047      1344.5855      10007.618     -5761.3295     -48.282069      1.0799257      46924.444    
  24420000   198.48224      5407.736      -1405.3956      2488.3985      1344.3545      10028.674     -5816.9362     -49.451016      1.0783047      46994.984    
  24440000   200.81972      5457.716      -1427.3366      2486.106       1361.9374      10053.301     -5783.823      -50.529377      1.0820877      46830.689    
  24460000   197.18313      5393.7367     -1427.4923      2481.0957      1330.7194      10000.061     -5761.4533     -47.017232      1.0780112      47007.781    
  24480000   199.45951      5452.3459     -1409.2048      2490.8153      1355.1872      10047.819     -5801.3869     -49.638679      1.0799571      46923.078    
  24500000   198.03995      5421.2765     -1449.6544      2481.0684      1328.1417      10099.483     -5806.2498     -49.235754      1.08606        46659.405    
  24520000   198.60653      5398.7349     -1424.8594      2472.9718      1328.7276      10031.636     -5776.9528     -50.89491       1.0853251      46690.998    
  24540000   203.93281      5386.493      -1452.4108      2489.9677      1353.822       9965.2319     -5740.9677     -47.098329      1.082284       46822.194    
  24560000   204.3035       5420.7533     -1421.4541      2476.4104      1337.7844      9992.2008     -5730.6104     -52.022677      1.0786819      46978.552    
  24580000   199.18802      5388.2594     -1427.0202      2474.1937      1384.5105      9992.7098     -5810.8264     -43.202663      1.0804206      46902.95     
  24600000   203.36806      5442.0957     -1456.0554      2496.4667      1382.4912      10032.621     -5792.7997     -38.59928       1.0782243      46998.489    
  24620000   200.68337      5439.5206     -1414.1697      2479.9802      1372.131       10047.839     -5814.286      -50.32232       1.0777702      47018.292    
  24640000   201.05097      5446.2635     -1440.481       2485.8736      1328.8766      10105.103     -5800.7892     -49.897043      1.0801495      46914.719    
  24660000   198.60646      5463.0158     -1423.9721      2482.0388      1359.5901      10067.591     -5790.8121     -49.075427      1.0744318      47164.384    
  24680000   196.9292       5443.232      -1431.3879      2479.5602      1388.5936      10057.169     -5817.16       -51.216144      1.0801315      46915.504    
  24700000   198.37175      5445.8894     -1417.3239      2485.3394      1360.8871      10018.886     -5776.7377     -43.285937      1.0748107      47147.757    
  24720000   198.53364      5405.8437     -1453.9451      2493.6677      1320.0341      10050.784     -5774.0798     -48.290215      1.0789374      46967.424    
  24740000   199.87674      5437.5587     -1440.0183      2480.3494      1354.9468      10105.853     -5832.1042     -49.544916      1.0744921      47161.738    
  24760000   199.77971      5510.1741     -1461.262       2490.2372      1400.4947      10111.553     -5803.0389     -46.376508      1.0754828      47118.294    
  24780000   200.20906      5431.4443     -1432.2592      2474.2742      1381.9865      10029.162     -5790.228      -49.323988      1.0736113      47200.429    
  24800000   198.22576      5382.8903     -1453.1342      2477.6126      1377.8691      10014.56      -5806.3023     -46.097785      1.0809702      46879.103    
  24820000   199.71705      5476.0988     -1422.5479      2471.5252      1387.6685      10017.511     -5747.1427     -49.004767      1.0821438      46828.26     
  24840000   198.94556      5382.124      -1430.4866      2489.0827