LAMMPS (22 Dec 2022)
WARNING: Using I/O redirection is unreliable with parallel runs. Better to use the -in switch to read input files. (../lammps.cpp:531)
# PREREQUISITES:
#
#     You must use moltemplate.sh to create 3 files:
#        system.data  system.in.init  system.in.settings
#     (Follow the instructions in README_setup.sh,
#      or run the file as a script using ./README_setup.sh)

# ------------------------------- Initialization Section --------------------

units real
atom_style full
pair_style lj/class2/coul/long 10.0 10.0
bond_style class2
angle_style class2
dihedral_style class2
improper_style class2
pair_modify	mix sixthpower tail yes
special_bonds	lj/coul 0 0 1
kspace_style pppm/cg 0.0001


# ------------------------------- Atom Definition Section -------------------

read_data       "pack_mol.data" extra/bond/per/atom 1 extra/angle/per/atom 12 extra/dihedral/per/atom 12 extra/improper/per/atom 12 extra/special/per/atom 12
Reading data file ...
  orthogonal box = (0 0 0) to (49.718356 49.718356 49.718356)
  1 by 2 by 3 MPI processor grid
  reading atoms ...
  5016 atoms
  scanning bonds ...
  5 = max bonds/atom
  scanning angles ...
  18 = max angles/atom
  scanning dihedrals ...
  29 = max dihedrals/atom
  scanning impropers ...
  16 = max impropers/atom
  reading bonds ...
  5412 bonds
  reading angles ...
  11088 angles
  reading dihedrals ...
  17688 dihedrals
  reading impropers ...
  6996 impropers
Finding 1-2 1-3 1-4 neighbors ...
  special bond factors lj:    0        0        1       
  special bond factors coul:  0        0        1       
     4 = max # of 1-2 neighbors
     9 = max # of 1-3 neighbors
    25 = max # of special neighbors
  special bonds CPU = 0.000 seconds
  read_data CPU = 0.104 seconds

include calc.pram
# Pair Coeffs

pair_coeff	 1  1    0.05400    4.01000  # c,c
pair_coeff	 2  2    0.05400    4.01000  # c1,c1
pair_coeff	 3  3    0.12000    3.81000  # c_1,c_1
pair_coeff	 4  4    0.02000    2.99500  # hc,hc
pair_coeff	 5  5    0.24000    3.53500  # o3e,o3e
pair_coeff	 6  6    0.26700    3.30000  # o_1,o_1
pair_coeff	 7  7    0.24000    3.42000  # o_2,o_2

# Bond Coeffs

bond_coeff	 1    1.53000  299.67000 -501.77000  679.81000  # c,c
bond_coeff	 2    1.53000  299.67000 -501.77000  679.81000  # c,c1
bond_coeff	 3    1.10100  345.00000 -691.89000  844.60000  # c,hc
bond_coeff	 4    1.43000  326.72730 -608.53060  689.03330  # c,o_2
bond_coeff	 5    1.53000  299.67000 -501.77000  679.81000  # c1,c1
bond_coeff	 6    1.52020  253.70670 -423.03700  396.90000  # c1,c_1
bond_coeff	 7    1.10100  345.00000 -691.89000  844.60000  # c1,hc
bond_coeff	 8    1.42000  400.39540 -835.19510 1313.01420  # c1,o3e
bond_coeff	 9    1.20200  851.14030 -1918.48820 2160.76590  # c_1,o_1
bond_coeff	10    1.36830  367.14810 -794.79080 1055.23190  # c_1,o_2

# Angle Coeffs

angle_coeff	 1  112.67000   39.51600   -7.44300   -9.55830  # c,c,c1
angle_coeff	 2  110.77000   41.45300  -10.60400    5.12900  # c,c,hc
angle_coeff	 3  112.67000   39.51600   -7.44300   -9.55830  # c,c1,c
angle_coeff	 4  112.67000   39.51600   -7.44300   -9.55830  # c,c1,c1
angle_coeff	 5  108.52950   51.97470   -9.48510  -10.99850  # c,c1,c_1
angle_coeff	 6  110.77000   41.45300  -10.60400    5.12900  # c,c1,hc
angle_coeff	 7  111.27000   54.53810   -8.36420  -13.08380  # c,c1,o3e
angle_coeff	 8  113.28800   61.28680  -28.97860    7.99290  # c,o_2,c_1
angle_coeff	 9  112.67000   39.51600   -7.44300   -9.55830  # c1,c,c1
angle_coeff	10  110.77000   41.45300  -10.60400    5.12900  # c1,c,hc
angle_coeff	11  107.41000   63.39070  -13.45130    1.66500  # c1,c,o_2
angle_coeff	12  110.77000   41.45300  -10.60400    5.12900  # c1,c1,hc
angle_coeff	13  111.27000   54.53810   -8.36420  -13.08380  # c1,c1,o3e
angle_coeff	14  123.14510   55.54310  -17.21230    0.13480  # c1,c_1,o_1
angle_coeff	15  100.31820   38.86310   -3.83230   -7.98020  # c1,c_1,o_2
angle_coeff	16  104.50000   35.74540  -10.00670   -6.27290  # c1,o3e,c1
angle_coeff	17  107.73360   40.60990  -28.81210    0.00000  # c_1,c1,hc
angle_coeff	18  107.66000   39.64100  -12.92100   -2.43180  # hc,c,hc
angle_coeff	19  107.68800   65.48010  -10.34980    5.88660  # hc,c,o_2
angle_coeff	20  108.72800   58.54460  -10.80880  -12.40060  # hc,c1,o3e
angle_coeff	21  120.79700   95.34460  -32.28690    6.37780  # o_1,c_1,o_2

# BondBond Coeffs

angle_coeff	 1 bb    0.00000    1.53000    1.53000  # c,c,c1
angle_coeff	 2 bb    3.38720    1.53000    1.10100  # c,c,hc
angle_coeff	 3 bb    0.00000    1.53000    1.53000  # c,c1,c
angle_coeff	 4 bb    0.00000    1.53000    1.53000  # c,c1,c1
angle_coeff	 5 bb    5.41990    1.53000    1.52020  # c,c1,c_1
angle_coeff	 6 bb    3.38720    1.53000    1.10100  # c,c1,hc
angle_coeff	 7 bb   11.43180    1.53000    1.42000  # c,c1,o3e
angle_coeff	 8 bb   45.45030    1.43000    1.36830  # c,o_2,c_1
angle_coeff	 9 bb    0.00000    1.53000    1.53000  # c1,c,c1
angle_coeff	10 bb    3.38720    1.53000    1.10100  # c1,c,hc
angle_coeff	11 bb   23.26470    1.53000    1.43000  # c1,c,o_2
angle_coeff	12 bb    3.38720    1.53000    1.10100  # c1,c1,hc
angle_coeff	13 bb   11.43180    1.53000    1.42000  # c1,c1,o3e
angle_coeff	14 bb   46.06850    1.52020    1.20200  # c1,c_1,o_1
angle_coeff	15 bb   19.10690    1.52020    1.36830  # c1,c_1,o_2
angle_coeff	16 bb   -7.11310    1.42000    1.42000  # c1,o3e,c1
angle_coeff	17 bb    0.71150    1.52020    1.10100  # c_1,c1,hc
angle_coeff	18 bb    5.33160    1.10100    1.10100  # hc,c,hc
angle_coeff	19 bb    5.64540    1.10100    1.43000  # hc,c,o_2
angle_coeff	20 bb   23.19790    1.10100    1.42000  # hc,c1,o3e
angle_coeff	21 bb  121.48800    1.20200    1.36830  # o_1,c_1,o_2

# BondAngle Coeffs

angle_coeff	 1 ba    8.01600    8.01600    1.53000    1.53000  # c,c,c1
angle_coeff	 2 ba   20.75400   11.42100    1.53000    1.10100  # c,c,hc
angle_coeff	 3 ba    8.01600    8.01600    1.53000    1.53000  # c,c1,c
angle_coeff	 4 ba    8.01600    8.01600    1.53000    1.53000  # c,c1,c1
angle_coeff	 5 ba   15.87580   18.16780    1.53000    1.52020  # c,c1,c_1
angle_coeff	 6 ba   20.75400   11.42100    1.53000    1.10100  # c,c1,hc
angle_coeff	 7 ba    2.68680   20.40330    1.53000    1.42000  # c,c1,o3e
angle_coeff	 8 ba   46.46080   41.91160    1.43000    1.36830  # c,o_2,c_1
angle_coeff	 9 ba    8.01600    8.01600    1.53000    1.53000  # c1,c,c1
angle_coeff	10 ba   11.42100   20.75400    1.53000    1.10100  # c1,c,hc
angle_coeff	11 ba   47.94870   23.39200    1.53000    1.43000  # c1,c,o_2
angle_coeff	12 ba   11.42100   20.75400    1.53000    1.10100  # c1,c1,hc
angle_coeff	13 ba    2.68680   20.40330    1.53000    1.42000  # c1,c1,o3e
angle_coeff	14 ba   37.12980   34.99820    1.52020    1.20200  # c1,c_1,o_1
angle_coeff	15 ba    4.69780    1.34350    1.52020    1.36830  # c1,c_1,o_2
angle_coeff	16 ba   -2.81120   -2.81120    1.42000    1.42000  # c1,o3e,c1
angle_coeff	17 ba   12.46320    9.17650    1.52020    1.10100  # c_1,c1,hc
angle_coeff	18 ba   18.10300   18.10300    1.10100    1.10100  # hc,c,hc
angle_coeff	19 ba   57.49750    8.68640    1.10100    1.43000  # hc,c,o_2
angle_coeff	20 ba    4.61890   55.32700    1.10100    1.42000  # hc,c1,o3e
angle_coeff	21 ba   76.26140   71.87610    1.20200    1.36830  # o_1,c_1,o_2

# Dihedral Coeffs

dihedral_coeff	 1    0.00000    0.00000    0.05140    0.00000   -0.14300    0.00000  # c,c,c1,c
dihedral_coeff	 2    0.00000    0.00000    0.05140    0.00000   -0.14300    0.00000  # c,c,c1,c1
dihedral_coeff	 3    0.09720    0.00000    0.07220    0.00000   -0.25810    0.00000  # c,c,c1,c_1
dihedral_coeff	 4    0.00000    0.00000    0.03160    0.00000   -0.16810    0.00000  # c,c,c1,hc
dihedral_coeff	 5    0.71370    0.00000    0.26600    0.00000   -0.25450    0.00000  # c,c,c1,o3e
dihedral_coeff	 6    0.00000    0.00000    0.05140    0.00000   -0.14300    0.00000  # c,c1,c,c1
dihedral_coeff	 7    0.00000    0.00000    0.03160    0.00000   -0.16810    0.00000  # c,c1,c,hc
dihedral_coeff	 8    0.00000    0.00000    0.00000    0.00000   -0.25000    0.00000  # c,c1,c,o_2
dihedral_coeff	 9    0.00000    0.00000    0.05140    0.00000   -0.14300    0.00000  # c,c1,c1,c
dihedral_coeff	10    0.00000    0.00000    0.03160    0.00000   -0.16810    0.00000  # c,c1,c1,hc
dihedral_coeff	11    0.71370    0.00000    0.26600    0.00000   -0.25450    0.00000  # c,c1,c1,o3e
dihedral_coeff	12    0.04420    0.00000    0.02920    0.00000    0.05620    0.00000  # c,c1,c_1,o_1
dihedral_coeff	13    1.83410    0.00000    2.06030    0.00000   -0.01950    0.00000  # c,c1,c_1,o_2
dihedral_coeff	14   -0.52030    0.00000   -0.30280    0.00000   -0.34500    0.00000  # c,c1,o3e,c1
dihedral_coeff	15   -2.55940    0.00000    2.20130    0.00000    0.03250    0.00000  # c,o_2,c_1,c1
dihedral_coeff	16    0.00000    0.00000    2.20890    0.00000    0.00000    0.00000  # c,o_2,c_1,o_1
dihedral_coeff	17    0.00000    0.00000    0.05140    0.00000   -0.14300    0.00000  # c1,c,c,c1
dihedral_coeff	18    0.00000    0.00000    0.03160    0.00000   -0.16810    0.00000  # c1,c,c,hc
dihedral_coeff	19    0.00000    0.00000    0.05140    0.00000   -0.14300    0.00000  # c1,c,c1,c1
dihedral_coeff	20    0.09720    0.00000    0.07220    0.00000   -0.25810    0.00000  # c1,c,c1,c_1
dihedral_coeff	21    0.00000    0.00000    0.03160    0.00000   -0.16810    0.00000  # c1,c,c1,hc
dihedral_coeff	22    0.71370    0.00000    0.26600    0.00000   -0.25450    0.00000  # c1,c,c1,o3e
dihedral_coeff	23    0.00000    0.00000    0.00000    0.00000   -0.19320    0.00000  # c1,c,o_2,c_1
dihedral_coeff	24    0.00000    0.00000    0.03160    0.00000   -0.16810    0.00000  # c1,c1,c,hc
dihedral_coeff	25    0.53020    0.00000    0.00000    0.00000   -0.39660    0.00000  # c1,o3e,c1,hc
dihedral_coeff	26   -0.02280    0.00000    0.02800    0.00000   -0.18630    0.00000  # c_1,c1,c,hc
dihedral_coeff	27    0.00000    0.00000    0.00000    0.00000   -0.19320    0.00000  # c_1,o_2,c,hc
dihedral_coeff	28   -0.14320    0.00000    0.06170    0.00000   -0.10830    0.00000  # hc,c,c,hc
dihedral_coeff	29   -0.14320    0.00000    0.06170    0.00000   -0.10830    0.00000  # hc,c,c1,hc
dihedral_coeff	30   -0.14350    0.00000    0.25300    0.00000   -0.09050    0.00000  # hc,c,c1,o3e
dihedral_coeff	31    0.00000    0.00000    0.00000    0.00000   -0.25000    0.00000  # hc,c1,c,o_2
dihedral_coeff	32   -0.14320    0.00000    0.06170    0.00000   -0.10830    0.00000  # hc,c1,c1,hc
dihedral_coeff	33   -0.14350    0.00000    0.25300    0.00000   -0.09050    0.00000  # hc,c1,c1,o3e
dihedral_coeff	34   -0.18040    0.00000    0.00120    0.00000    0.03710    0.00000  # hc,c1,c_1,o_1
dihedral_coeff	35   -0.63590    0.00000    1.48070    0.00000   -0.04380    0.00000  # hc,c1,c_1,o_2

# MiddleBondTorsion Coeffs

dihedral_coeff	 1 mbt  -17.78700   -7.18770    0.00000    1.53000  # c,c,c1,c
dihedral_coeff	 2 mbt  -17.78700   -7.18770    0.00000    1.53000  # c,c,c1,c1
dihedral_coeff	 3 mbt   -1.59450    0.22670   -0.69110    1.53000  # c,c,c1,c_1
dihedral_coeff	 4 mbt  -14.87900   -3.65810   -0.31380    1.53000  # c,c,c1,hc
dihedral_coeff	 5 mbt  -21.88420   -7.67640   -0.68680    1.53000  # c,c,c1,o3e
dihedral_coeff	 6 mbt  -17.78700   -7.18770    0.00000    1.53000  # c,c1,c,c1
dihedral_coeff	 7 mbt  -14.87900   -3.65810   -0.31380    1.53000  # c,c1,c,hc
dihedral_coeff	 8 mbt    0.00000    0.00000    0.00000    1.53000  # c,c1,c,o_2
dihedral_coeff	 9 mbt  -17.78700   -7.18770    0.00000    1.53000  # c,c1,c1,c
dihedral_coeff	10 mbt  -14.87900   -3.65810   -0.31380    1.53000  # c,c1,c1,hc
dihedral_coeff	11 mbt  -21.88420   -7.67640   -0.68680    1.53000  # c,c1,c1,o3e
dihedral_coeff	12 mbt    0.33880   -0.10960    0.12190    1.52020  # c,c1,c_1,o_1
dihedral_coeff	13 mbt  -17.32800   -5.79000   -3.21140    1.52020  # c,c1,c_1,o_2
dihedral_coeff	14 mbt   -5.92880   -2.70070   -0.31750    1.42000  # c,c1,o3e,c1
dihedral_coeff	15 mbt    1.34450    3.55150   -4.92020    1.36830  # c,o_2,c_1,c1
dihedral_coeff	16 mbt    4.26000    0.00000    0.00000    1.36830  # c,o_2,c_1,o_1
dihedral_coeff	17 mbt  -17.78700   -7.18770    0.00000    1.53000  # c1,c,c,c1
dihedral_coeff	18 mbt  -14.87900   -3.65810   -0.31380    1.53000  # c1,c,c,hc
dihedral_coeff	19 mbt  -17.78700   -7.18770    0.00000    1.53000  # c1,c,c1,c1
dihedral_coeff	20 mbt   -1.59450    0.22670   -0.69110    1.53000  # c1,c,c1,c_1
dihedral_coeff	21 mbt  -14.87900   -3.65810   -0.31380    1.53000  # c1,c,c1,hc
dihedral_coeff	22 mbt  -21.88420   -7.67640   -0.68680    1.53000  # c1,c,c1,o3e
dihedral_coeff	23 mbt   -5.43500    0.00000    0.00000    1.43000  # c1,c,o_2,c_1
dihedral_coeff	24 mbt  -14.87900   -3.65810   -0.31380    1.53000  # c1,c1,c,hc
dihedral_coeff	25 mbt   -6.80070   -4.65460   -1.41010    1.42000  # c1,o3e,c1,hc
dihedral_coeff	26 mbt   -3.50390    1.24580   -0.76100    1.53000  # c_1,c1,c,hc
dihedral_coeff	27 mbt    0.00000    0.00000    0.00000    1.43000  # c_1,o_2,c,hc
dihedral_coeff	28 mbt  -14.26100   -0.53220   -0.48640    1.53000  # hc,c,c,hc
dihedral_coeff	29 mbt  -14.26100   -0.53220   -0.48640    1.53000  # hc,c,c1,hc
dihedral_coeff	30 mbt  -16.79750   -1.22960   -0.27500    1.53000  # hc,c,c1,o3e
dihedral_coeff	31 mbt    0.00000    0.00000    0.00000    1.53000  # hc,c1,c,o_2
dihedral_coeff	32 mbt  -14.26100   -0.53220   -0.48640    1.53000  # hc,c1,c1,hc
dihedral_coeff	33 mbt  -16.79750   -1.22960   -0.27500    1.53000  # hc,c1,c1,o3e
dihedral_coeff	34 mbt    0.23590    0.91390    0.95940    1.52020  # hc,c1,c_1,o_1
dihedral_coeff	35 mbt  -13.76860   -2.59590    1.19340    1.52020  # hc,c1,c_1,o_2

# EndBondTorsion Coeffs

dihedral_coeff	 1 ebt   -0.07320    0.00000    0.00000   -0.07320    0.00000    0.00000    1.53000    1.53000  # c,c,c1,c
dihedral_coeff	 2 ebt   -0.07320    0.00000    0.00000   -0.07320    0.00000    0.00000    1.53000    1.53000  # c,c,c1,c1
dihedral_coeff	 3 ebt    0.00550    0.00600   -0.00090    0.00620   -0.00020    0.00360    1.53000    1.52020  # c,c,c1,c_1
dihedral_coeff	 4 ebt    0.24860    0.24220   -0.09250    0.08140    0.05910    0.22190    1.53000    1.10100  # c,c,c1,hc
dihedral_coeff	 5 ebt   -0.31900    0.44110   -0.71740    1.15380    0.84090   -0.91380    1.53000    1.42000  # c,c,c1,o3e
dihedral_coeff	 6 ebt   -0.07320    0.00000    0.00000   -0.07320    0.00000    0.00000    1.53000    1.53000  # c,c1,c,c1
dihedral_coeff	 7 ebt    0.24860    0.24220   -0.09250    0.08140    0.05910    0.22190    1.53000    1.10100  # c,c1,c,hc
dihedral_coeff	 8 ebt    0.00000    0.00000    0.00000    0.00000    0.00000    0.00000    1.53000    1.43000  # c,c1,c,o_2
dihedral_coeff	 9 ebt   -0.07320    0.00000    0.00000   -0.07320    0.00000    0.00000    1.53000    1.53000  # c,c1,c1,c
dihedral_coeff	10 ebt    0.24860    0.24220   -0.09250    0.08140    0.05910    0.22190    1.53000    1.10100  # c,c1,c1,hc
dihedral_coeff	11 ebt   -0.31900    0.44110   -0.71740    1.15380    0.84090   -0.91380    1.53000    1.42000  # c,c1,c1,o3e
dihedral_coeff	12 ebt   -0.28100    0.08160   -0.15220    0.26540    0.05030    0.10460    1.53000    1.20200  # c,c1,c_1,o_1
dihedral_coeff	13 ebt    0.00000    0.00000    0.00000    0.00000    0.00000    0.00000    1.53000    1.36830  # c,c1,c_1,o_2
dihedral_coeff	14 ebt   -0.24560    1.05170   -0.77950    0.47410    1.26350    0.55760    1.53000    1.42000  # c,c1,o3e,c1
dihedral_coeff	15 ebt    0.00000    0.00000    0.00000    0.00000    0.00000    0.00000    1.43000    1.52020  # c,o_2,c_1,c1
dihedral_coeff	16 ebt    0.00000    0.00000    0.00000    0.00000    0.00000    0.00000    1.43000    1.20200  # c,o_2,c_1,o_1
dihedral_coeff	17 ebt   -0.07320    0.00000    0.00000   -0.07320    0.00000    0.00000    1.53000    1.53000  # c1,c,c,c1
dihedral_coeff	18 ebt    0.08140    0.05910    0.22190    0.24860    0.24220   -0.09250    1.53000    1.10100  # c1,c,c,hc
dihedral_coeff	19 ebt   -0.07320    0.00000    0.00000   -0.07320    0.00000    0.00000    1.53000    1.53000  # c1,c,c1,c1
dihedral_coeff	20 ebt    0.00550    0.00600   -0.00090    0.00620   -0.00020    0.00360    1.53000    1.52020  # c1,c,c1,c_1
dihedral_coeff	21 ebt    0.08140    0.05910    0.22190    0.24860    0.24220   -0.09250    1.53000    1.10100  # c1,c,c1,hc
dihedral_coeff	22 ebt   -0.31900    0.44110   -0.71740    1.15380    0.84090   -0.91380    1.53000    1.42000  # c1,c,c1,o3e
dihedral_coeff	23 ebt    0.00000    0.00000    0.00000    0.00000    0.00000    0.00000    1.53000    1.36830  # c1,c,o_2,c_1
dihedral_coeff	24 ebt    0.08140    0.05910    0.22190    0.24860    0.24220   -0.09250    1.53000    1.10100  # c1,c1,c,hc
dihedral_coeff	25 ebt   -0.60540    1.33390    0.96480   -0.16200    0.15640   -1.14080    1.42000    1.10100  # c1,o3e,c1,hc
dihedral_coeff	26 ebt   -0.02040    0.36280   -0.44260   -0.00970   -0.03150   -0.07550    1.52020    1.10100  # c_1,c1,c,hc
dihedral_coeff	27 ebt    0.00000    0.00000    0.00000    0.00000    0.00000    0.00000    1.36830    1.10100  # c_1,o_2,c,hc
dihedral_coeff	28 ebt    0.21300    0.31200    0.07770    0.21300    0.31200    0.07770    1.10100    1.10100  # hc,c,c,hc
dihedral_coeff	29 ebt    0.21300    0.31200    0.07770    0.21300    0.31200    0.07770    1.10100    1.10100  # hc,c,c1,hc
dihedral_coeff	30 ebt    0.96810    0.95510    0.04360    0.59030    0.66690    0.85840    1.10100    1.42000  # hc,c,c1,o3e
dihedral_coeff	31 ebt    0.00000    0.00000    0.00000    0.00000    0.00000    0.00000    1.10100    1.43000  # hc,c1,c,o_2
dihedral_coeff	32 ebt    0.21300    0.31200    0.07770    0.21300    0.31200    0.07770    1.10100    1.10100  # hc,c1,c1,hc
dihedral_coeff	33 ebt    0.96810    0.95510    0.04360    0.59030    0.66690    0.85840    1.10100    1.42000  # hc,c1,c1,o3e
dihedral_coeff	34 ebt   -0.22980    0.03540    0.38530    1.21430    0.28310    0.39160    1.10100    1.20200  # hc,c1,c_1,o_1
dihedral_coeff	35 ebt    0.00000    0.00000    0.00000    0.00000    0.00000    0.00000    1.10100    1.36830  # hc,c1,c_1,o_2

# AngleTorsion Coeffs

dihedral_coeff	 1 at    0.38860   -0.31390    0.13890    0.38860   -0.31390    0.13890  112.67000  112.67000  # c,c,c1,c
dihedral_coeff	 2 at    0.38860   -0.31390    0.13890    0.38860   -0.31390    0.13890  112.67000  112.67000  # c,c,c1,c1
dihedral_coeff	 3 at    0.05150   -0.06740   -0.04740   -0.26070    0.32030   -0.22830  112.67000  108.52950  # c,c,c1,c_1
dihedral_coeff	 4 at   -0.24540    0.00000   -0.11360    0.31130    0.45160   -0.19880  112.67000  110.77000  # c,c,c1,hc
dihedral_coeff	 5 at    0.56230   -0.30410   -0.40150    0.96720   -0.75660   -1.23310  112.67000  111.27000  # c,c,c1,o3e
dihedral_coeff	 6 at    0.38860   -0.31390    0.13890    0.38860   -0.31390    0.13890  112.67000  112.67000  # c,c1,c,c1
dihedral_coeff	 7 at   -0.24540    0.00000   -0.11360    0.31130    0.45160   -0.19880  112.67000  110.77000  # c,c1,c,hc
dihedral_coeff	 8 at    0.00000    0.00000    0.00000    0.00000    0.00000    0.00000  112.67000  107.41000  # c,c1,c,o_2
dihedral_coeff	 9 at    0.38860   -0.31390    0.13890    0.38860   -0.31390    0.13890  112.67000  112.67000  # c,c1,c1,c
dihedral_coeff	10 at   -0.24540    0.00000   -0.11360    0.31130    0.45160   -0.19880  112.67000  110.77000  # c,c1,c1,hc
dihedral_coeff	11 at    0.56230   -0.30410   -0.40150    0.96720   -0.75660   -1.23310  112.67000  111.27000  # c,c1,c1,o3e
dihedral_coeff	12 at    0.67500    0.59650    0.67250    0.08850   -1.37030   -0.54520  108.52950  123.14510  # c,c1,c_1,o_1
dihedral_coeff	13 at    0.00000    0.00000    0.00000    0.00000    0.00000    0.00000  108.52950  100.31820  # c,c1,c_1,o_2
dihedral_coeff	14 at   -2.74660    1.48770   -0.89550    0.56760    0.94500    0.07030  111.27000  104.50000  # c,c1,o3e,c1
dihedral_coeff	15 at    0.00000    0.00000    0.00000    0.00000    0.00000    0.00000  113.28800  100.31820  # c,o_2,c_1,c1
dihedral_coeff	16 at    0.00000    0.00000    0.00000    0.00000    0.00000    0.00000  113.28800  120.79700  # c,o_2,c_1,o_1
dihedral_coeff	17 at    0.38860   -0.31390    0.13890    0.38860   -0.31390    0.13890  112.67000  112.67000  # c1,c,c,c1
dihedral_coeff	18 at    0.31130    0.45160   -0.19880   -0.24540    0.00000   -0.11360  112.67000  110.77000  # c1,c,c,hc
dihedral_coeff	19 at    0.38860   -0.31390    0.13890    0.38860   -0.31390    0.13890  112.67000  112.67000  # c1,c,c1,c1
dihedral_coeff	20 at    0.05150   -0.06740   -0.04740   -0.26070    0.32030   -0.22830  112.67000  108.52950  # c1,c,c1,c_1
dihedral_coeff	21 at    0.31130    0.45160   -0.19880   -0.24540    0.00000   -0.11360  112.67000  110.77000  # c1,c,c1,hc
dihedral_coeff	22 at    0.56230   -0.30410   -0.40150    0.96720   -0.75660   -1.23310  112.67000  111.27000  # c1,c,c1,o3e
dihedral_coeff	23 at    0.00000    0.00000    0.00000    0.00000    0.00000    0.00000  107.41000  113.28800  # c1,c,o_2,c_1
dihedral_coeff	24 at    0.31130    0.45160   -0.19880   -0.24540    0.00000   -0.11360  112.67000  110.77000  # c1,c1,c,hc
dihedral_coeff	25 at   -1.82340    1.63930    0.51440   -0.77770    0.43400   -0.66530  104.50000  108.72800  # c1,o3e,c1,hc
dihedral_coeff	26 at   -0.74660   -0.94480   -0.63210    0.01620    1.42110   -1.40920  108.52950  110.77000  # c_1,c1,c,hc
dihedral_coeff	27 at    0.00000    0.00000    0.00000    0.00000    0.00000    0.00000  113.28800  107.68800  # c_1,o_2,c,hc
dihedral_coeff	28 at   -0.80850    0.55690   -0.24660   -0.80850    0.55690   -0.24660  110.77000  110.77000  # hc,c,c,hc
dihedral_coeff	29 at   -0.80850    0.55690   -0.24660   -0.80850    0.55690   -0.24660  110.77000  110.77000  # hc,c,c1,hc
dihedral_coeff	30 at    2.36680    2.49200   -1.01220   -0.18920    0.49180    0.72730  110.77000  111.27000  # hc,c,c1,o3e
dihedral_coeff	31 at    0.00000    0.00000    0.00000    0.00000    0.00000    0.00000  110.77000  107.41000  # hc,c1,c,o_2
dihedral_coeff	32 at   -0.80850    0.55690   -0.24660   -0.80850    0.55690   -0.24660  110.77000  110.77000  # hc,c1,c1,hc
dihedral_coeff	33 at    2.36680    2.49200   -1.01220   -0.18920    0.49180    0.72730  110.77000  111.27000  # hc,c1,c1,o3e
dihedral_coeff	34 at   -1.49460    0.73080   -0.20830    9.12990   -0.48470    0.35820  107.73360  123.14510  # hc,c1,c_1,o_1
dihedral_coeff	35 at    0.00000    0.00000    0.00000    0.00000    0.00000    0.00000  107.73360  100.31820  # hc,c1,c_1,o_2

# AngleAngleTorsion Coeffs

dihedral_coeff	 1 aat  -22.04500  112.67000  112.67000  # c,c,c1,c
dihedral_coeff	 2 aat  -22.04500  112.67000  112.67000  # c,c,c1,c1
dihedral_coeff	 3 aat   -0.38010  112.67000  108.52950  # c,c,c1,c_1
dihedral_coeff	 4 aat  -16.16400  112.67000  110.77000  # c,c,c1,hc
dihedral_coeff	 5 aat  -29.04200  112.67000  111.27000  # c,c,c1,o3e
dihedral_coeff	 6 aat  -22.04500  112.67000  112.67000  # c,c1,c,c1
dihedral_coeff	 7 aat  -16.16400  112.67000  110.77000  # c,c1,c,hc
dihedral_coeff	 8 aat    0.00000  112.67000  107.41000  # c,c1,c,o_2
dihedral_coeff	 9 aat  -22.04500  112.67000  112.67000  # c,c1,c1,c
dihedral_coeff	10 aat  -16.16400  112.67000  110.77000  # c,c1,c1,hc
dihedral_coeff	11 aat  -29.04200  112.67000  111.27000  # c,c1,c1,o3e
dihedral_coeff	12 aat   -8.01900  108.52950  123.14510  # c,c1,c_1,o_1
dihedral_coeff	13 aat    0.00000  108.52950  100.31820  # c,c1,c_1,o_2
dihedral_coeff	14 aat  -19.00590  111.27000  104.50000  # c,c1,o3e,c1
dihedral_coeff	15 aat    0.00000  113.28800  100.31820  # c,o_2,c_1,c1
dihedral_coeff	16 aat    0.00000  113.28800  120.79700  # c,o_2,c_1,o_1
dihedral_coeff	17 aat  -22.04500  112.67000  112.67000  # c1,c,c,c1
dihedral_coeff	18 aat  -16.16400  112.67000  110.77000  # c1,c,c,hc
dihedral_coeff	19 aat  -22.04500  112.67000  112.67000  # c1,c,c1,c1
dihedral_coeff	20 aat   -0.38010  112.67000  108.52950  # c1,c,c1,c_1
dihedral_coeff	21 aat  -16.16400  112.67000  110.77000  # c1,c,c1,hc
dihedral_coeff	22 aat  -29.04200  112.67000  111.27000  # c1,c,c1,o3e
dihedral_coeff	23 aat    0.00000  107.41000  113.28800  # c1,c,o_2,c_1
dihedral_coeff	24 aat  -16.16400  112.67000  110.77000  # c1,c1,c,hc
dihedral_coeff	25 aat  -16.44380  104.50000  108.72800  # c1,o3e,c1,hc
dihedral_coeff	26 aat   -5.36240  108.52950  110.77000  # c_1,c1,c,hc
dihedral_coeff	27 aat    0.00000  113.28800  107.68800  # c_1,o_2,c,hc
dihedral_coeff	28 aat  -12.56400  110.77000  110.77000  # hc,c,c,hc
dihedral_coeff	29 aat  -12.56400  110.77000  110.77000  # hc,c,c1,hc
dihedral_coeff	30 aat  -20.20060  110.77000  111.27000  # hc,c,c1,o3e
dihedral_coeff	31 aat    0.00000  110.77000  107.41000  # hc,c1,c,o_2
dihedral_coeff	32 aat  -12.56400  110.77000  110.77000  # hc,c1,c1,hc
dihedral_coeff	33 aat  -20.20060  110.77000  111.27000  # hc,c1,c1,o3e
dihedral_coeff	34 aat  -15.34960  107.73360  123.14510  # hc,c1,c_1,o_1
dihedral_coeff	35 aat    0.00000  107.73360  100.31820  # hc,c1,c_1,o_2

# BondBond13 Coeffs

dihedral_coeff	 1 bb13    0.00000    1.53000    1.53000  # c,c,c1,c
dihedral_coeff	 2 bb13    0.00000    1.53000    1.53000  # c,c,c1,c1
dihedral_coeff	 3 bb13    0.00000    1.53000    1.52020  # c,c,c1,c_1
dihedral_coeff	 4 bb13    0.00000    1.53000    1.10100  # c,c,c1,hc
dihedral_coeff	 5 bb13    0.00000    1.53000    1.42000  # c,c,c1,o3e
dihedral_coeff	 6 bb13    0.00000    1.53000    1.53000  # c,c1,c,c1
dihedral_coeff	 7 bb13    0.00000    1.53000    1.10100  # c,c1,c,hc
dihedral_coeff	 8 bb13    0.00000    1.53000    1.43000  # c,c1,c,o_2
dihedral_coeff	 9 bb13    0.00000    1.53000    1.53000  # c,c1,c1,c
dihedral_coeff	10 bb13    0.00000    1.53000    1.10100  # c,c1,c1,hc
dihedral_coeff	11 bb13    0.00000    1.53000    1.42000  # c,c1,c1,o3e
dihedral_coeff	12 bb13    0.00000    1.53000    1.20200  # c,c1,c_1,o_1
dihedral_coeff	13 bb13    0.00000    1.53000    1.36830  # c,c1,c_1,o_2
dihedral_coeff	14 bb13    0.00000    1.53000    1.42000  # c,c1,o3e,c1
dihedral_coeff	15 bb13    0.00000    1.43000    1.52020  # c,o_2,c_1,c1
dihedral_coeff	16 bb13    0.00000    1.43000    1.20200  # c,o_2,c_1,o_1
dihedral_coeff	17 bb13    0.00000    1.53000    1.53000  # c1,c,c,c1
dihedral_coeff	18 bb13    0.00000    1.53000    1.10100  # c1,c,c,hc
dihedral_coeff	19 bb13    0.00000    1.53000    1.53000  # c1,c,c1,c1
dihedral_coeff	20 bb13    0.00000    1.53000    1.52020  # c1,c,c1,c_1
dihedral_coeff	21 bb13    0.00000    1.53000    1.10100  # c1,c,c1,hc
dihedral_coeff	22 bb13    0.00000    1.53000    1.42000  # c1,c,c1,o3e
dihedral_coeff	23 bb13    0.00000    1.53000    1.36830  # c1,c,o_2,c_1
dihedral_coeff	24 bb13    0.00000    1.53000    1.10100  # c1,c1,c,hc
dihedral_coeff	25 bb13    0.00000    1.42000    1.10100  # c1,o3e,c1,hc
dihedral_coeff	26 bb13    0.00000    1.52020    1.10100  # c_1,c1,c,hc
dihedral_coeff	27 bb13    0.00000    1.36830    1.10100  # c_1,o_2,c,hc
dihedral_coeff	28 bb13    0.00000    1.10100    1.10100  # hc,c,c,hc
dihedral_coeff	29 bb13    0.00000    1.10100    1.10100  # hc,c,c1,hc
dihedral_coeff	30 bb13    0.00000    1.10100    1.42000  # hc,c,c1,o3e
dihedral_coeff	31 bb13    0.00000    1.10100    1.43000  # hc,c1,c,o_2
dihedral_coeff	32 bb13    0.00000    1.10100    1.10100  # hc,c1,c1,hc
dihedral_coeff	33 bb13    0.00000    1.10100    1.42000  # hc,c1,c1,o3e
dihedral_coeff	34 bb13    0.00000    1.10100    1.20200  # hc,c1,c_1,o_1
dihedral_coeff	35 bb13    0.00000    1.10100    1.36830  # hc,c1,c_1,o_2

# Improper Coeffs

improper_coeff	 1    0.00000    0.00000  # c,c,c1,hc
improper_coeff	 2    0.00000    0.00000  # c,c,hc,c1
improper_coeff	 3    0.00000    0.00000  # c,c,hc,hc
improper_coeff	 4    0.00000    0.00000  # c,c1,c1,hc
improper_coeff	 5    0.00000    0.00000  # c,c1,hc,hc
improper_coeff	 6    0.00000    0.00000  # c,c1,hc,o_2
improper_coeff	 7    0.00000    0.00000  # c,hc,hc,o_2
improper_coeff	 8    0.00000    0.00000  # c1,c,c,c
improper_coeff	 9    0.00000    0.00000  # c1,c,c,c_1
improper_coeff	10    0.00000    0.00000  # c1,c,c,hc
improper_coeff	11    0.00000    0.00000  # c1,c,c1,hc
improper_coeff	12    0.00000    0.00000  # c1,c,c1,o3e
improper_coeff	13    0.00000    0.00000  # c1,c,hc,c1
improper_coeff	14    0.00000    0.00000  # c1,c,hc,c_1
improper_coeff	15    0.00000    0.00000  # c1,c,o3e,c1
improper_coeff	16    0.00000    0.00000  # c1,c,o3e,hc
improper_coeff	17    0.00000    0.00000  # c1,c1,o3e,hc
improper_coeff	18   46.92640    0.00000  # c_1,c1,o_2,o_1

# AngleAngle Coeffs

improper_coeff	 1 aa   -1.31990    0.00000    0.11840  112.67000  110.77000  110.77000  # c,c,c1,hc
improper_coeff	 2 aa    0.11840    0.00000   -1.31990  110.77000  112.67000  110.77000  # c,c,hc,c1
improper_coeff	 3 aa    0.27380   -0.48250    0.27380  110.77000  110.77000  107.66000  # c,c,hc,hc
improper_coeff	 4 aa    0.00000    0.00000    0.11840  112.67000  110.77000  110.77000  # c,c1,c1,hc
improper_coeff	 5 aa    0.00000   -0.48250    0.00000  110.77000  110.77000  107.66000  # c,c1,hc,hc
improper_coeff	 6 aa    0.00000    0.00000    0.00000  110.77000  107.41000  107.68800  # c,c1,hc,o_2
improper_coeff	 7 aa    0.00000    0.00000    0.00000  107.66000  107.68800  107.68800  # c,hc,hc,o_2
improper_coeff	 8 aa   -0.17290   -0.17290   -0.17290  112.67000  112.67000  112.67000  # c1,c,c,c
improper_coeff	 9 aa    0.00000    0.00000    0.00000  112.67000  108.52950  108.52950  # c1,c,c,c_1
improper_coeff	10 aa   -1.31990   -1.31990    0.11840  112.67000  110.77000  110.77000  # c1,c,c,hc
improper_coeff	11 aa   -1.31990    0.00000    0.11840  112.67000  110.77000  110.77000  # c1,c,c1,hc
improper_coeff	12 aa   -0.83300   -0.83300   -3.57440  112.67000  111.27000  111.27000  # c1,c,c1,o3e
improper_coeff	13 aa    0.11840    0.00000   -1.31990  110.77000  112.67000  110.77000  # c1,c,hc,c1
improper_coeff	14 aa    0.00000   -1.82020    2.04030  110.77000  108.52950  107.73360  # c1,c,hc,c_1
improper_coeff	15 aa   -3.57440   -0.83300   -0.83300  111.27000  112.67000  111.27000  # c1,c,o3e,c1
improper_coeff	16 aa    0.16890    2.59260    3.91770  111.27000  110.77000  108.72800  # c1,c,o3e,hc
improper_coeff	17 aa    0.00000    2.59260    3.91770  111.27000  110.77000  108.72800  # c1,c1,o3e,hc
improper_coeff	18 aa    0.00000    0.00000    0.00000  100.31820  123.14510  120.79700  # c_1,c1,o_2,o_1


# ------------------------------- OPT Section -------------------------------
minimize 1.0e-5 1.0e-7 100000 400000
PPPM initialization ...
  using 12-bit tables for long-range coulomb (../kspace.cpp:342)
  G vector (1/distance) = 0.21506545
  grid = 15 15 15
  stencil order = 5
  estimated absolute RMS force accuracy = 0.019221309
  estimated relative force accuracy = 5.7884401e-05
  using double precision KISS FFT
  3d grid and FFT values/proc = 2600 675
Generated 21 of 21 mixed pair_coeff terms from sixthpower/sixthpower mixing rule
Neighbor list info ...
  update: every = 1 steps, delay = 0 steps, check = yes
  max neighbors/atom: 2000, page size: 100000
  master list distance cutoff = 12
  ghost atom cutoff = 12
  binsize = 6, bins = 9 9 9
  1 neighbor lists, perpetual/occasional/extra = 1 0 0
  (1) pair lj/class2/coul/long, perpetual
      attributes: half, newton on
      pair build: half/bin/newton
      stencil: half/bin/3d
      bin: standard
  PPPM/cg optimization cutoff: 1e-05
  Total charged atoms: 100.0%
  Min/max charged atoms/proc: 100.0% 100.0%
Per MPI rank memory allocation (min/avg/max) = 29.36 | 29.39 | 29.42 Mbytes
   Step          Temp          E_pair         E_mol          TotEng         Press     
         0   0              2211.4315      33129.654      35341.085      3566.9888    
       128   0              816.18539      28388.015      29204.2       -87.634982    
Loop time of 2.21104 on 6 procs for 128 steps with 5016 atoms

98.2% CPU use with 6 MPI tasks x no OpenMP threads

Minimization stats:
  Stopping criterion = energy tolerance
  Energy initial, next-to-last, final = 
       35341.085310723   29204.3553803746   29204.2002961744
  Force two-norm initial, final = 2439.5454 93.560177
  Force max component initial, final = 110.03067 54.474001
  Final line search alpha, max atom move = 0.005968821 0.32514556
  Iterations, force evaluations = 128 254

MPI task timing breakdown:
Section |  min time  |  avg time  |  max time  |%varavg| %total
---------------------------------------------------------------
Pair    | 0.50628    | 0.62139    | 0.87776    |  15.7 | 28.10
Bond    | 0.68781    | 0.82848    | 1.0737     |  14.9 | 37.47
Kspace  | 0.19839    | 0.69927    | 0.95498    |  30.5 | 31.63
Neigh   | 0.011611   | 0.011632   | 0.011642   |   0.0 |  0.53
Comm    | 0.031517   | 0.034328   | 0.036793   |   1.1 |  1.55
Output  | 0          | 0          | 0          |   0.0 |  0.00
Modify  | 0          | 0          | 0          |   0.0 |  0.00
Other   |            | 0.01595    |            |       |  0.72

Nlocal:            836 ave         993 max         732 min
Histogram: 1 0 2 1 0 0 1 0 0 1
Nghost:        5063.33 ave        5159 max        4941 min
Histogram: 1 0 0 1 0 1 0 2 0 1
Neighs:         134255 ave      187128 max      111013 min
Histogram: 2 1 1 1 0 0 0 0 0 1

Total # of neighbors = 805530
Ave neighs/atom = 160.59211
Ave special neighs/atom = 6.2631579
Neighbor list builds = 3
Dangerous builds = 0
# ------------------------------- Run Section -------------------------------
#

thermo_style custom step temp pe evdwl ecoul ebond eangle edihed eimp density vol
thermo          100

fix Langevin  all langevin 300 300 100.0 482432
fix moveLimit all nve/limit 0.1
run 10000
PPPM initialization ...
  using 12-bit tables for long-range coulomb (../kspace.cpp:342)
  G vector (1/distance) = 0.21506545
  grid = 15 15 15
  stencil order = 5
  estimated absolute RMS force accuracy = 0.019221309
  estimated relative force accuracy = 5.7884401e-05
  using double precision KISS FFT
  3d grid and FFT values/proc = 2600 675
Generated 21 of 21 mixed pair_coeff terms from sixthpower/sixthpower mixing rule
Per MPI rank memory allocation (min/avg/max) = 28.24 | 28.26 | 28.29 Mbytes
   Step          Temp          PotEng         E_vdwl         E_coul         E_bond        E_angle        E_dihed        E_impro        Density         Volume    
       128   0              29204.2       -142.80525      7490.4918      543.7207       30846.419     -2915.48       -86.645219      0.44999999     122899.55    
       200   160.58464      31349.268     -6.2839781      7482.954       1455.6923      31859.982     -2838.6123     -72.166496      0.44999999     122899.55    
       300   254.29816      32577.381      37.911597      7473.2116      2004.363       32467.793     -2821.1099     -49.588324      0.44999999     122899.55    
       400   285.14293      32885.346      53.087813      7464.3915      2212.9299      32582.879     -2843.9403     -46.028798      0.44999999     122899.55    
       500   296.93657      33007.842      65.471124      7444.8523      2284.8435      32707.082     -2918.9502     -37.348029      0.44999999     122899.55    
       600   300.98831      33071.27       24.128175      7452.9151      2331.2167      32745.714     -2901.5731     -41.389555      0.44999999     122899.55    
       700   298.10166      32954.126      14.290678      7443.2377      2329.3449      32713.915     -2964.9845     -39.519544      0.44999999     122899.55    
       800   298.91724      32940.052      41.331214      7435.4334      2293.6432      32738.193     -2986.6406     -39.14089       0.44999999     122899.55    
       900   304.54232      32856.984      14.33183       7430.6931      2333.1453      32740.053     -3073.0791     -44.362786      0.44999999     122899.55    
      1000   303.02886      32802.824      6.8968355      7426.6778      2304.3204      32727.438     -3064.8626     -51.829747      0.44999999     122899.55    
      1100   297.70399      32745.936     -7.8716529      7426.6218      2320.4126      32718.393     -3123.9326     -44.072554      0.44999999     122899.55    
      1200   301.82565      32789.802      14.664243      7444.2098      2344.0615      32643.575     -3085.262      -28.50189       0.44999999     122899.55    
      1300   300.4115       32771.295      10.321608      7426.4176      2353.4055      32625.09      -3058.9849     -39.653088      0.44999999     122899.55    
      1400   298.95381      32747.488      11.024313      7419.5043      2283.5578      32776.501     -3156.9889     -40.133615      0.44999999     122899.55    
      1500   301.34054      32778.364      9.9563418      7416.8258      2415.3099      32666.644     -3138.7572     -44.407775      0.44999999     122899.55    
      1600   298.60993      32667.614     -31.39176       7414.7712      2351.681       32656.932     -3126.1167     -51.189617      0.44999999     122899.55    
      1700   292.43257      32635.88       9.6950314      7406.7563      2325.5329      32706.654     -3215.477      -48.874293      0.44999999     122899.55    
      1800   297.93864      32648.259     -18.024414      7408.1497      2286.9748      32641.49      -3078.2456     -41.387961      0.44999999     122899.55    
      1900   298.40361      32506.241      0.68957196     7407.9969      2236.034       32661.34      -3197.1747     -52.393299      0.44999999     122899.55    
      2000   295.07047      32631.633     -15.453642      7406.7336      2326.3291      32682.779     -3181.099      -36.770662      0.44999999     122899.55    
      2100   300.32721      32588.494     -22.429884      7399.1847      2343.1759      32582.004     -3124.033      -37.412144      0.44999999     122899.55    
      2200   305.56979      32464.086     -15.665417      7383.1478      2231.5292      32649.068     -3187.4818     -43.875361      0.44999999     122899.55    
      2300   298.83151      32492.694     -52.916174      7384.7512      2226.1538      32687.181     -3155.4651     -43.385802      0.44999999     122899.55    
      2400   296.45407      32516.038     -10.250813      7389.2343      2241.8077      32599.615     -3111.1064     -39.674316      0.44999999     122899.55    
      2500   299.95098      32521.528     -56.076856      7385.8785      2343.635       32646.546     -3200.8229     -43.612277      0.44999999     122899.55    
      2600   297.57774      32513.899     -26.511708      7390.3819      2295.6589      32668.266     -3215.9971     -45.568899      0.44999999     122899.55    
      2700   299.31952      32548.622     -37.268522      7386.4292      2357.9064      32615.514     -3173.9698     -47.275908      0.44999999     122899.55    
      2800   300.2884       32458.847     -29.935195      7383.919       2255.0107      32668.293     -3215.6645     -49.654797      0.44999999     122899.55    
      2900   305.73593      32438.507     -38.072793      7380.7571      2301.171       32579.742     -3187.0548     -43.286672      0.44999999     122899.55    
      3000   296.71974      32488.467     -22.875855      7379.371       2266.8371      32642.789     -3179.3588     -41.860468      0.44999999     122899.55    
      3100   302.40959      32554.528     -5.3001789      7371.407       2362.4189      32708.792     -3272.2152     -52.689552      0.44999999     122899.55    
      3200   300.84613      32442.483     -61.275476      7366.3867      2283.0272      32651.983     -3201.0542     -39.330499      0.44999999     122899.55    
      3300   304.13034      32462.077     -64.862737      7375.9009      2392.9507      32581.534     -3227.903      -39.432559      0.44999999     122899.55    
      3400   300.39989      32469.85      -39.417058      7386.7807      2324.5509      32700.095     -3296.8129     -48.151064      0.44999999     122899.55    
      3500   299.15166      32615.68      -36.136298      7374.4981      2401.1521      32691.792     -3219.1143     -39.227074      0.44999999     122899.55    
      3600   307.52212      32400.198     -74.720287      7370.9887      2303.5983      32620.934     -3221.0245     -43.259678      0.44999999     122899.55    
      3700   299.04594      32475.646     -53.012022      7367.1044      2301.079       32707.798     -3248.0034     -42.316897      0.44999999     122899.55    
      3800   299.4311       32389.007     -44.521669      7369.7502      2262.6465      32677.301     -3259.6929     -58.513723      0.44999999     122899.55    
      3900   297.51192      32352.981     -89.043138      7369.0492      2315.261       32619.262     -3263.5595     -39.49002       0.44999999     122899.55    
      4000   295.81663      32354.293     -26.049699      7372.5606      2244.477       32622.796     -3236.7324     -62.471561      0.44999999     122899.55    
      4100   302.68258      32403.54      -81.042899      7363.7186      2356.8631      32626.165     -3259.3336     -45.185917      0.44999999     122899.55    
      4200   303.11645      32390.432     -86.054723      7359.3001      2332.1786      32611.628     -3227.1923     -42.996073      0.44999999     122899.55    
      4300   301.16914      32341.424     -70.342507      7367.58        2310.4496      32625.813     -3282.2156     -52.267537      0.44999999     122899.55    
      4400   300.62971      32377.987     -91.704289      7374.9536      2330.8464      32603.848     -3234.1215     -47.015108      0.44999999     122899.55    
      4500   302.98666      32242.222     -82.984621      7372.6307      2290.4018      32550.486     -3276.2739     -54.189392      0.44999999     122899.55    
      4600   297.09896      32451.608     -74.187127      7371.5039      2395.4794      32577.855     -3202.4505     -59.180041      0.44999999     122899.55    
      4700   299.76012      32338.537     -31.553188      7374.5754      2267.7028      32624.721     -3281.907      -58.243291      0.44999999     122899.55    
      4800   296.72263      32436.504     -74.09377       7364.8003      2438.7466      32584.31      -3281.1279     -40.388511      0.44999999     122899.55    
      4900   298.54657      32323.696     -26.407309      7362.4379      2289.8412      32628.557     -3321.2751     -52.250876      0.44999999     122899.55    
      5000   303.21655      32302.436     -89.809802      7363.1869      2311.6334      32554.722     -3252.203      -28.249332      0.44999999     122899.55    
      5100   296.74305      32236.331     -61.452766      7360.851       2244.3719      32622.218     -3318.6473     -55.415822      0.44999999     122899.55    
      5200   304.52582      32173.79      -81.082844      7358.6389      2241.0576      32661.491     -3398.9449     -49.406727      0.44999999     122899.55    
      5300   299.57458      32215.763     -96.938696      7344.9807      2324.4193      32527.389     -3284.8028     -41.831166      0.44999999     122899.55    
      5400   307.16288      32235.781     -83.272366      7356.3435      2261.7148      32565.338     -3271.1593     -35.081829      0.44999999     122899.55    
      5500   299.56874      32257.369     -123.01547      7357.3295      2333.035       32596.397     -3297.0391     -50.732149      0.44999999     122899.55    
      5600   298.24341      32274.887     -85.611403      7358.6782      2337.3396      32547.179     -3282.4243     -40.628121      0.44999999     122899.55    
      5700   301.94728      32284.351     -88.528947      7358.2562      2302.7764      32668.735     -3346.8317     -50.065377      0.44999999     122899.55    
      5800   298.1802       32383.111     -89.718911      7364.562       2304.5177      32631.706     -3237.2416     -30.177514      0.44999999     122899.55    
      5900   302.81791      32277.214     -92.702801      7343.6567      2299.1174      32633.001     -3293.6607     -51.407919      0.44999999     122899.55    
      6000   304.19803      32258.011     -100.55066      7349.6107      2316.4931      32650.695     -3346.2622     -51.377684      0.44999999     122899.55    
      6100   297.08542      32324.881     -62.205757      7348.3504      2279.9634      32637.097     -3265.9228     -49.799219      0.44999999     122899.55    
      6200   292.42761      32198.734     -87.118737      7346.9207      2315.0965      32592.421     -3349.324      -56.468178      0.44999999     122899.55    
      6300   296.03044      32172.876     -109.86516      7348.1515      2239.8555      32654.192     -3345.7934     -48.980569      0.44999999     122899.55    
      6400   297.02673      32368.144     -94.760625      7366.4652      2387.4172      32554.501     -3234.3498     -46.539788      0.44999999     122899.55    
      6500   303.7516       32259.937     -124.6964       7357.4201      2253.9444      32627.77      -3243.3417     -48.64661       0.44999999     122899.55    
      6600   298.64989      32319.375     -87.723373      7354.4218      2332.659       32704.459     -3358.1328     -61.843674      0.44999999     122899.55    
      6700   305.75018      32274.864     -95.072883      7354.7512      2330.7894      32537.785     -3248.9243     -40.104214      0.44999999     122899.55    
      6800   304.60128      32334.652     -118.57103      7359.0384      2328.2524      32681.764     -3291.3364     -60.116844      0.44999999     122899.55    
      6900   307.02134      32292.847     -82.842267      7355.8533      2271.9914      32627.958     -3281.4859     -35.222146      0.44999999     122899.55    
      7000   301.74872      32220.194     -129.65478      7352.2343      2318.0335      32577.421     -3281.9354     -51.579184      0.44999999     122899.55    
      7100   307.6897       32202.782     -126.71796      7358.2863      2290.519       32548.043     -3262.5256     -42.800457      0.44999999     122899.55    
      7200   300.08467      32172.421     -124.44546      7357.343       2249.9731      32588.988     -3306.4974     -30.845597      0.44999999     122899.55    
      7300   298.29036      32229.298     -152.47142      7348.3957      2311.906       32646.556     -3320.2251     -43.133797      0.44999999     122899.55    
      7400   302.83147      32182.457     -126.46715      7349.727       2220.5902      32648.684     -3309.289      -38.70266       0.44999999     122899.55    
      7500   305.69335      32208.44      -126.66465      7356.125       2339.5177      32644.187     -3386.6196     -55.517682      0.44999999     122899.55    
      7600   303.45844      32191.821     -163.41629      7345.8794      2326.7035      32609.668     -3320.5614     -43.498702      0.44999999     122899.55    
      7700   301.86637      32205.322     -101.49085      7344.4732      2288.4114      32551.254     -3267.5792     -45.406583      0.44999999     122899.55    
      7800   301.41716      32306.184     -124.96337      7336.4456      2412.8581      32582.168     -3294.0768     -41.295598      0.44999999     122899.55    
      7900   302.47742      32227.711     -124.07717      7352.6383      2322.2127      32621.181     -3324.6223     -56.614774      0.44999999     122899.55    
      8000   295.56809      32192.135     -141.36135      7343.936       2274.6032      32648.691     -3313.0992     -57.734213      0.44999999     122899.55    
      8100   301.21895      32210.917     -126.85947      7349.3872      2312.9421      32572.767     -3274.949      -59.217645      0.44999999     122899.55    
      8200   293.81922      32213.684     -153.27136      7349.2524      2304.5435      32703.729     -3379.1419     -46.932579      0.44999999     122899.55    
      8300   298.76474      32182.857     -152.01725      7344.8415      2323.6808      32680.146     -3391.0102     -58.735437      0.44999999     122899.55    
      8400   294.80196      32184.419     -121.73629      7339.9661      2294.5481      32583.224     -3305.4208     -42.042004      0.44999999     122899.55    
      8500   297.44389      32103.792     -99.169705      7338.3151      2201.9406      32523.086     -3248.2039     -48.833923      0.44999999     122899.55    
      8600   291.77309      32252.066     -135.87901      7349.0177      2339.557       32649.736     -3342.0305     -46.486953      0.44999999     122899.55    
      8700   298.19783      32162.751     -113.20443      7340.8569      2263.1583      32674.216     -3375.2393     -62.97618       0.44999999     122899.55    
      8800   290.56209      32337.503     -161.46141      7350.9107      2406.8796      32592.267     -3261.4877     -26.684242      0.44999999     122899.55    
      8900   305.28755      32260.024     -136.0963       7352.5775      2285.2812      32641.605     -3273.1121     -47.657633      0.44999999     122899.55    
      9000   310.83852      32325.937     -150.75598      7358.5584      2367.6202      32707.424     -3351.1882     -45.049333      0.44999999     122899.55    
      9100   302.21334      32228.354     -141.86452      7337.691       2310.0922      32676.024     -3344.4988     -47.314716      0.44999999     122899.55    
      9200   304.30287      32224.515     -129.14105      7345.7609      2353.8305      32522.866     -3249.5469     -58.589216      0.44999999     122899.55    
      9300   300.32738      32289.269     -157.59324      7350.8743      2374.3315      32621.704     -3297.3174     -41.587922      0.44999999     122899.55    
      9400   299.46777      32202.16      -184.73701      7336.9046      2293.418       32658.098     -3308.9177     -32.045313      0.44999999     122899.55    
      9500   298.19855      32244.512     -105.86355      7341.8198      2327.5799      32603.851     -3319.4974     -44.07108       0.44999999     122899.55    
      9600   298.58814      32215.307     -152.32843      7334.2138      2297.024       32648.587     -3293.9326     -58.889038      0.44999999     122899.55    
      9700   295.86693      32261.696     -134.73904      7331.3127      2278.6417      32746.669     -3330.0307     -69.259111      0.44999999     122899.55    
      9800   298.8881       32170.089     -159.56899      7335.7623      2343.5792      32605.849     -3353.0124     -42.066648      0.44999999     122899.55    
      9900   298.31597      32104.183     -177.88155      7334.2651      2308.41        32504.131     -3262.1259     -40.878746      0.44999999     122899.55    
     10000   302.33974      32156.767     -187.26158      7339.909       2285.9612      32630.854     -3317.7983     -33.866449      0.44999999     122899.55    
     10100   293.72227      32177.195     -176.65126      7338.669       2367.7909      32561.199     -3322.0496     -30.057713      0.44999999     122899.55    
     10128   295.44429      32116.044     -140.55531      7336.3576      2271.4749      32601.683     -3334.8216     -57.80967       0.44999999     122899.55    
Loop time of 78.2359 on 6 procs for 10000 steps with 5016 atoms

Performance: 11.044 ns/day, 2.173 hours/ns, 127.819 timesteps/s, 641.138 katom-step/s
99.1% CPU use with 6 MPI tasks x no OpenMP threads

MPI task timing breakdown:
Section |  min time  |  avg time  |  max time  |%varavg| %total
---------------------------------------------------------------
Pair    | 13.139     | 17.284     | 23.624     |  76.4 | 22.09
Bond    | 21.379     | 24.933     | 30.11      |  53.0 | 31.87
Kspace  | 20.063     | 31.366     | 38.855     | 101.6 | 40.09
Neigh   | 1.0864     | 1.0897     | 1.0967     |   0.3 |  1.39
Comm    | 2.2016     | 2.3172     | 2.4508     |   5.7 |  2.96
Output  | 0.0085392  | 0.011665   | 0.020591   |   3.8 |  0.01
Modify  | 0.37222    | 0.44497    | 0.53299    |   7.5 |  0.57
Other   |            | 0.7901     |            |       |  1.01

Nlocal:            836 ave         960 max         726 min
Histogram: 1 1 1 0 1 0 0 0 0 2
Nghost:         5111.5 ave        5249 max        5008 min
Histogram: 1 0 1 2 0 1 0 0 0 1
Neighs:         138304 ave      182721 max      107805 min
Histogram: 1 1 0 2 0 1 0 0 0 1

Total # of neighbors = 829826
Ave neighs/atom = 165.43581
Ave special neighs/atom = 6.2631579
Neighbor list builds = 226
Dangerous builds = 0
unfix Langevin
unfix moveLimit



fix 		relax all npt temp 300.0 300.0 100 iso 1.0 1.0 1000
run 100000
PPPM initialization ...
  using 12-bit tables for long-range coulomb (../kspace.cpp:342)
  G vector (1/distance) = 0.21506545
  grid = 15 15 15
  stencil order = 5
  estimated absolute RMS force accuracy = 0.019221309
  estimated relative force accuracy = 5.7884401e-05
  using double precision KISS FFT
  3d grid and FFT values/proc = 2600 675
Generated 21 of 21 mixed pair_coeff terms from sixthpower/sixthpower mixing rule
Per MPI rank memory allocation (min/avg/max) = 28.24 | 28.26 | 28.29 Mbytes
   Step          Temp          PotEng         E_vdwl         E_coul         E_bond        E_angle        E_dihed        E_impro        Density         Volume    
     10128   295.44429      32116.044     -140.55531      7336.3576      2271.4749      32601.683     -3334.8216     -57.80967       0.44999999     122899.55    
     10200   298.17269      32101.769     -199.80793      7348.3744      2286.3131      32527.57      -3257.3847     -43.124585      0.45100892     122624.62    
     10300   303.64852      32133.789     -185.37699      7341.1205      2287.0159      32605.708     -3309.7938     -42.67011       0.45540151     121441.84    
     10400   304.42277      32138.832     -202.40707      7337.7343      2333.9947      32646.578     -3360.0878     -54.238589      0.46205705     119692.57    
     10500   304.28104      32065.555     -266.2692       7327.2897      2286.7189      32608.458     -3273.9695     -54.590731      0.4685459      118034.96    
     10600   297.82648      32069.509     -231.11249      7327.2072      2325.124       32551.456     -3285.8366     -55.426207      0.47415809     116637.88    
     10700   298.96866      32006.94      -297.3392       7327.8148      2304.0431      32570.507     -3277.9398     -58.55532       0.47877881     115512.2     
     10800   299.57014      31964.414     -343.98544      7328.3959      2318.4014      32593.068     -3327.1573     -41.889928      0.48430705     114193.66    
     10900   297.41119      31963.767     -321.26262      7339.6772      2286.6561      32590.429     -3336.8918     -33.535333      0.49040918     112772.76    
     11000   291.98936      31929.914     -280.47212      7333.9609      2272.107       32553.092     -3326.4578     -58.783894      0.49607147     111485.54    
     11100   296.19154      31821.082     -396.9514       7342.8139      2239.3915      32582.785     -3345.8052     -36.787506      0.50018317     110569.09    
     11200   296.47902      31910.965     -373.0829       7330.656       2295.8317      32604.087     -3354.1974     -29.492017      0.50459569     109602.2     
     11300   299.95111      31927.637     -371.02703      7340.4659      2256.4875      32560.581     -3269.8056     -26.618612      0.50975977     108491.88    
     11400   302.66832      31881.068     -389.01792      7345.4875      2218.4596      32554.954     -3250.341      -34.191954      0.5149972      107388.54    
     11500   301.7616       31852.301     -382.62042      7342.2091      2232.986       32555.634     -3286.8359     -44.613707      0.52044101     106265.25    
     11600   297.99402      31779.931     -363.85662      7323.0831      2184.0307      32582.648     -3328.0344     -54.587129      0.52573342     105195.51    
     11700   294.73255      31763.464     -438.55067      7333.7192      2255.6027      32568.388     -3347.2141     -45.672628      0.53065667     104219.54    
     11800   299.41414      31717.88      -421.41815      7337.8654      2232.9297      32487.993     -3296.1106     -56.806595      0.53651052     103082.41    
     11900   299.11949      31747.067     -494.1569       7325.0997      2242.0539      32618.701     -3337.7962     -42.218798      0.54180884     102074.37    
     12000   302.25643      31738.985     -480.80528      7320.843       2205.2436      32650.883     -3333.9997     -58.239361      0.54650903     101196.49    
     12100   302.81046      31746.336     -471.40908      7318.2601      2227.1554      32612.709     -3313.7345     -60.096974      0.55060843     100443.06    
     12200   299.6887       31669.949     -508.55119      7340.2857      2211.4464      32587.498     -3356.2278     -38.757469      0.5544068      99754.901    
     12300   295.60031      31645.866     -498.89818      7328.7439      2191.9832      32596.489     -3347.52       -58.078426      0.55885448     98960.995    
     12400   299.17769      31665.514     -532.99729      7327.2934      2162.1787      32669.5       -3345.0549     -47.196819      0.5635204      98141.603    
     12500   302.95045      31690.678     -546.76952      7317.3299      2249.1376      32580.169     -3301.3555     -37.984165      0.56778712     97404.103    
     12600   301.89058      31706.887     -533.22387      7325.4959      2213.9475      32606.317     -3284.37       -51.361494      0.57192047     96700.151    
     12700   304.44294      31572.097     -559.28822      7340.617       2168.9238      32526.168     -3294.5519     -41.063403      0.57629009     95966.938    
     12800   293.77154      31637.962     -559.56566      7332.0941      2208.1587      32613.784     -3326.3349     -59.819298      0.58130977     95138.252    
     12900   298.83611      31586.246     -553.3581       7322.6799      2216.3593      32546.821     -3320.1695     -56.005449      0.58595791     94383.564    
     13000   296.59017      31656.081     -602.34055      7327.1469      2208.1069      32620         -3286.0223     -43.108323      0.59043547     93667.806    
     13100   304.75329      31549.858     -584.43411      7322.027       2172.909       32623.737     -3368.3429     -49.707405      0.59510618     92932.651    
     13200   294.26544      31670.367     -579.77063      7340.7545      2219.7046      32624.613     -3317.9836     -52.243255      0.5998021      92205.071    
     13300   294.6938       31543.814     -622.90737      7341.3679      2179.114       32569.595     -3307.0436     -50.80211       0.60387607     91583.022    
     13400   297.98899      31484.997     -657.83454      7340.3172      2202.5196      32505.903     -3292.7505     -48.390472      0.60884214     90836.018    
     13500   301.53165      31547.816     -632.59261      7333.4618      2245.443       32518.659     -3307.1158     -44.984507      0.61477705     89959.109    
     13600   299.10776      31626.989     -649.48752      7327.9894      2193.6798      32639.693     -3275.0721     -46.559704      0.62030925     89156.813    
     13700   298.42166      31608.465     -604.83898      7329.7599      2236.5265      32623.044     -3355.4589     -58.069683      0.62545582     88423.185    
     13800   299.93638      31524.759     -666.05281      7329.7022      2171.8349      32626.37      -3335.5803     -37.708765      0.62893181     87934.486    
     13900   295.30782      31461.553     -672.60996      7324.7688      2197.5684      32524.963     -3293.7798     -54.935256      0.63238768     87453.942    
     14000   293.62443      31466.419     -728.1597       7330.2428      2171.8417      32589.777     -3299.3514     -32.810026      0.6364217      86899.606    
     14100   303.61021      31372.457     -717.07977      7317.5432      2211.131       32508.16      -3330.7612     -51.084375      0.64187325     86161.552    
     14200   301.62662      31445.025     -761.25173      7332.4321      2206.7307      32593.228     -3317.9423     -43.716191      0.64686654     85496.454    
     14300   304.63798      31408.205     -754.89         7310.9386      2219.3833      32566.872     -3322.8017     -45.827421      0.65091383     84964.849    
     14400   296.35436      31399.067     -728.98989      7321.7688      2155.1816      32573.892     -3307.6154     -49.250394      0.65447064     84503.097    
     14500   296.94255      31326.664     -809.12327      7313.5979      2144.9482      32615.251     -3316.2187     -55.248254      0.6579784      84052.6      
     14600   295.15333      31427.789     -720.7011       7314.9035      2211.163       32547.741     -3301.0902     -58.786768      0.6628341      83436.859    
     14700   300.92735      31419.794     -778.02893      7316.9346      2178.8131      32577.465     -3255.2569     -54.535899      0.66655461     82971.139    
     14800   302.57619      31395.212     -776.45433      7307.9447      2184.2817      32636.94      -3335.0333     -56.489198      0.66935872     82623.553    
     14900   300.89333      31377.413     -816.42151      7336.4663      2144.8323      32687.661     -3351.7068     -59.293683      0.67300093     82176.402    
     15000   297.69568      31282.093     -794.83532      7327.3774      2150.1317      32509.27      -3288.1313     -58.210683      0.67731046     81653.537    
     15100   298.12236      31279.817     -827.43546      7325.1612      2146.7352      32473.535     -3234.4973     -41.48425       0.68124882     81181.491    
     15200   295.96293      31365.731     -843.88052      7332.4617      2141.942       32632.093     -3290.2595     -44.242357      0.68621821     80593.599    
     15300   302.7166       31314.071     -845.87225      7337.5671      2216.3136      32649.639     -3441.907      -38.453637      0.69185692     79936.753    
     15400   303.51469      31331.789     -827.52179      7330.9192      2199.3975      32518.967     -3283.2772     -41.258955      0.6975273      79286.926    
     15500   300.31578      31283.913     -847.39099      7322.5651      2233.1612      32479.543     -3294.2484     -42.646359      0.70203316     78778.039    
     15600   294.99628      31247.124     -793.61182      7312.3745      2157.2045      32520.044     -3337.3314     -42.532959      0.70587458     78349.323    
     15700   300.09786      31224.22      -834.25168      7316.7492      2119.0034      32550.986     -3311.9829     -49.555282      0.70972776     77923.957    
     15800   304.53998      31234.408     -896.75153      7327.8887      2177.2474      32577.224     -3347.5928     -36.233661      0.71443149     77410.915    
     15900   301.45782      31299.289     -875.63333      7328.6069      2200.8347      32579.075     -3315.4208     -50.474723      0.72072022     76735.457    
     16000   297.5787       31344.794     -895.45108      7321.585       2198.9454      32635.209     -3304.6403     -43.707779      0.72704944     76067.448    
     16100   300.25927      31246.011     -875.29801      7307.8721      2214.4346      32572.665     -3364.7147     -42.011818      0.73205941     75546.867    
     16200   295.81109      31216.845     -878.26301      7311.2002      2175.7916      32522.848     -3299.7541     -45.538285      0.73612354     75129.774    
     16300   297.3195       31167.42      -894.37695      7311.1263      2093.3772      32594.933     -3321.3806     -47.799335      0.74041225     74694.598    
     16400   302.52908      31184.298     -940.56636      7332.1102      2144.0041      32627.952     -3370.4905     -42.937537      0.74484235     74250.337    
     16500   301.58147      31270.651     -939.98902      7311.7892      2185.1677      32637.903     -3322.4169     -32.024008      0.7494588      73792.976    
     16600   306.37884      31191.652     -977.56056      7309.452       2159.3762      32548.012     -3231.8696     -47.990556      0.7547435      73276.279    
     16700   298.95451      31252.651     -940.58583      7314.9283      2252.3304      32560.55      -3315.7674     -52.316929      0.76063164     72709.039    
     16800   305.09783      31123.273     -974.45229      7311.7304      2159.4575      32583.608     -3329.9143     -59.851025      0.76610476     72189.599    
     16900   300.2718       31164.526     -951.46511      7303.6633      2212.5212      32520.059     -3308.6816     -43.878684      0.7716426      71671.517    
     17000   298.51506      31188.181     -967.38607      7313.4776      2189.8546      32556.044     -3290.5251     -45.360919      0.77693019     71183.738    
     17100   296.43226      31227.209     -952.48775      7305.9945      2162.8041      32635.865     -3316.2856     -38.695364      0.78203088     70719.452    
     17200   299.1614       31187.91      -972.26938      7315.8679      2165.9232      32606.894     -3319.7574     -39.044075      0.78756617     70222.412    
     17300   298.1574       31198.195     -966.99418      7321.2302      2211.0685      32553.11      -3302.3084     -49.729198      0.79218193     69813.251    
     17400   295.64321      31218.265     -974.72367      7313.865       2238.3769      32547.526     -3311.0882     -29.227521      0.79705783     69386.176    
     17500   298.8414       31106.159     -984.00303      7303.0048      2188.6638      32493.138     -3288.9403     -41.844703      0.80156936     68995.645    
     17600   296.92544      31110.941     -951.19971      7299.9414      2161.8059      32590.354     -3374.9008     -51.630465      0.80684287     68544.692    
     17700   299.97988      31136.544     -964.44846      7314.6769      2162.0067      32588.001     -3350.6453     -47.172072      0.81236975     68078.354    
     17800   304.16712      31162.634     -1006.4449      7305.9778      2187.6453      32630.707     -3338.945      -49.195337      0.81676475     67712.026    
     17900   304.90788      31158.04      -1043.3684      7323.1307      2226.7209      32559.7       -3305.7215     -34.746814      0.82094859     67366.941    
     18000   299.1441       31142.146     -1077.8162      7313.5211      2159.1432      32635.901     -3265.6702     -54.643281      0.8262947      66931.078    
     18100   299.932        31079.588     -1047.1426      7305.137       2202.5517      32583.473     -3361.6936     -36.881364      0.83214729     66460.344    
     18200   296.15561      31088.954     -1047.1117      7305.7507      2211.5246      32592.801     -3365.7067     -41.516106      0.83746509     66038.329    
     18300   302.16218      30987.52      -1077.4284      7311.0605      2137.2741      32546.799     -3311.2902     -51.314257      0.84230349     65658.989    
     18400   298.45674      31035.788     -1120.1542      7290.4238      2207.8731      32575.721     -3300.4127     -49.560312      0.84808978     65211.015    
     18500   299.68271      30989.005     -1109.7407      7294.4453      2169.8161      32574.746     -3323.3045     -48.725091      0.85472393     64704.864    
     18600   297.51468      30953.763     -1124.9366      7290.0168      2150.6772      32576.841     -3307.4891     -62.967886      0.86086921     64242.971    
     18700   296.0355       30921.724     -1179.7494      7304.8156      2124.2575      32673.48      -3386.3767     -45.72743       0.86658071     63819.555    
     18800   295.31746      30959.583     -1149.4321      7285.147       2210.3206      32519.261     -3301.2306     -35.179341      0.8722333      63405.966    
     18900   304.15656      30962.595     -1163.0492      7284.3439      2188.6332      32555.782     -3284.6148     -48.32162       0.87602051     63131.85     
     19000   305.09827      30965.415     -1136.2941      7303.8871      2159.8296      32591.322     -3354.9898     -29.842279      0.87953214     62879.789    
     19100   299.32541      30993.928     -1166.4543      7295.8811      2175.4374      32712.256     -3410.3328     -44.165145      0.88184058     62715.185    
     19200   298.67287      30938.623     -1191.4139      7292.964       2193.5806      32540.017     -3285.6349     -43.40662       0.88450781     62526.068    
     19300   297.35075      30848.983     -1195.9537      7288.4824      2154.0335      32536.651     -3326.4937     -40.023197      0.88798307     62281.363    
     19400   290.93807      30832.599     -1204.994       7293.0697      2126.1036      32579.581     -3356.8814     -39.881194      0.89193677     62005.287    
     19500   298.44883      30785.352     -1219.5792      7290.5385      2165.3544      32512.112     -3358.4191     -37.462658      0.89620826     61709.759    
     19600   298.31921      30859.996     -1236.6597      7289.4924      2193.8725      32556.968     -3331.3442     -45.447478      0.90089826     61388.503    
     19700   303.39258      30837.02      -1192.2116      7300.0834      2176.3328      32500.891     -3336.6629     -44.039342      0.90521307     61095.887    
     19800   300.33777      30889.319     -1227.8037      7296.5412      2162.1691      32567.252     -3292.5287     -49.003689      0.90705728     60971.668    
     19900   294.49922      30855.021     -1174.4831      7290.4816      2175.9302      32514.581     -3329.3513     -55.752886      0.90922522     60826.288    
     20000   293.54632      30816.607     -1242.2982      7293.7321      2151.1656      32632.182     -3394.4022     -57.480628      0.90903753     60838.847    
     20100   294.48146      30879.412     -1234.1141      7300.301       2175.3711      32530.412     -3267.8617     -58.1622        0.90954024     60805.221    
     20200   297.16473      30914.984     -1236.7062      7307.6871      2242.2857      32573.994     -3355.1348     -50.564078      0.91140933     60680.524    
     20300   301.46998      30862.884     -1281.7682      7306.4112      2167.9046      32606.275     -3326.5997     -42.96141       0.91360835     60534.468    
     20400   301.73624      30795.168     -1232.1497      7309.2797      2160.5164      32545.847     -3370.3225     -53.179401      0.91812563     60236.632    
     20500   299.23189      30730.404     -1274.9387      7291.297       2154.4189      32556.785     -3368.583      -63.594483      0.922187       59971.346    
     20600   298.3064       30768.445     -1285.4285      7295.5207      2186.8094      32520.609     -3322.1979     -60.39877       0.92651097     59691.463    
     20700   297.88422      30839.818     -1210.2604      7295.8883      2117.5037      32587.109     -3330.6059     -52.695269      0.93086254     59412.419    
     20800   300.63517      30831.176     -1272.8384      7289.2692      2190.0576      32592.601     -3349.9834     -51.450661      0.93351861     59243.378    
     20900   301.69388      30855.543     -1294.9875      7288.5768      2176.9333      32695.714     -3389.4228     -51.542014      0.93648407     59055.778    
     21000   303.74238      30857.647     -1284.273       7285.4052      2141.4802      32645.45      -3313.5812     -44.539341      0.94028166     58817.265    
     21100   300.38878      30862.641     -1283.593       7283.8954      2169.6928      32632.797     -3326.1001     -42.790837      0.94205247     58706.704    
     21200   295.24864      30814.47      -1269.4789      7305.3231      2138.2634      32639.599     -3379.4742     -49.532452      0.94427913     58568.271    
     21300   294.46646      30812.689     -1277.5459      7308.8998      2232.5109      32525.045     -3357.1728     -48.455283      0.94655776     58427.28     
     21400   297.31143      30828.824     -1309.139       7300.6342      2187.4571      32583.482     -3332.3631     -30.004994      0.94949342     58246.634    
     21500   301.79129      30845.726     -1293.536       7299.5979      2171.8875      32608.907     -3319.6741     -50.785904      0.95309845     58026.32     
     21600   299.45541      30911.401     -1288.6222      7309.4187      2158.2028      32623.315     -3278.1662     -42.195646      0.9553445      57889.898    
     21700   295.63832      30882.58      -1256.315       7306.2855      2266.6389      32611.136     -3426.0928     -48.14444       0.95532557     57891.045    
     21800   295.91619      30776.563     -1325.497       7317.0383      2171.4996      32593.926     -3372.4175     -36.473699      0.95555702     57877.023    
     21900   294.87348      30783.344     -1306.4324      7305.9551      2139.7021      32593.395     -3324.7749     -52.821678      0.95851296     57698.537    
     22000   301.05723      30782.265     -1311.5667      7306.4786      2175.9712      32553.894     -3321.3722     -48.149059      0.96191176     57494.666    
     22100   305.59746      30769.26      -1351.5373      7300.2892      2162.6403      32559.427     -3283.1036     -47.224741      0.96537411     57288.459    
     22200   302.80628      30762.844     -1388.8491      7308.0569      2208.6353      32622.957     -3370.4893     -45.999627      0.97011042     57008.763    
     22300   297.79956      30729.968     -1314.6518      7297.4909      2125.2295      32579.919     -3338.7393     -49.27967       0.97478546     56735.351    
     22400   298.18208      30727.302     -1404.9594      7299.9452      2213.4321      32530.819     -3295.7193     -46.088049      0.97792431     56553.247    
     22500   300.15055      30737.239     -1391.6016      7293.9121      2204.5872      32550.245     -3303.6363     -47.657077      0.98139741     56353.109    
     22600   307.70426      30645.141     -1460.102       7297.6832      2157.4386      32581.675     -3321.1695     -43.072988      0.9837353      56219.184    
     22700   301.03431      30652.633     -1460.1035      7298.9874      2159.7596      32608.069     -3357.3505     -30.60924       0.98610109     56084.306    
     22800   297.98264      30604.143     -1392.7563      7296.9837      2130.5521      32519.841     -3327.6052     -56.388108      0.98903805     55917.763    
     22900   302.89696      30558.264     -1461.1864      7298.3721      2096.1132      32512.008     -3266.2097     -54.262845      0.98897984     55921.054    
     23000   300.40749      30679.029     -1453.5997      7290.8402      2175.13        32580.131     -3296.6977     -50.21369       0.98865165     55939.618    
     23100   303.53579      30665.346     -1435.8041      7302.6112      2133.7509      32566.026     -3298.6047     -35.905653      0.99040598     55840.53     
     23200   301.8989       30680.284     -1437.8718      7300.1004      2155.198       32596.018     -3307.2694     -59.172913      0.99153387     55777.011    
     23300   300.28137      30701.484     -1415.6891      7299.3038      2131.7382      32556.712     -3264.8473     -38.427923      0.99233193     55732.154    
     23400   300.11215      30704.438     -1427.7997      7295.3877      2159.2788      32619.558     -3322.4426     -51.368266      0.99297292     55696.177    
     23500   295.34165      30774.066     -1426.0391      7306.8771      2217.5716      32636.38      -3348.6526     -43.074741      0.99434835     55619.135    
     23600   303.40339      30669.774     -1426.2121      7303.0891      2162.5603      32547.159     -3304.0959     -44.397549      0.99586464     55534.45     
     23700   301.1489       30723.985     -1414.1889      7289.2352      2168.1391      32686.009     -3382.4749     -54.37509       0.99674481     55485.411    
     23800   299.70015      30720.958     -1434.5943      7298.5555      2224.3045      32575.682     -3321.0477     -51.859496      0.99837632     55394.739    
     23900   304.25709      30576.638     -1494.9069      7301.2804      2069.2607      32641.113     -3313.2297     -58.147874      1.0006618      55268.22     
     24000   297.24604      30607.121     -1440.9974      7296.6794      2121.6263      32594.809     -3352.0697     -44.343762      1.0048939      55035.459    
     24100   294.95243      30607.829     -1492.3623      7297.9738      2143.7022      32540.314     -3267.8493     -42.305722      1.007455       54895.548    
     24200   301.9569       30537.903     -1563.0856      7295.3673      2178.7272      32561.115     -3325.1817     -38.109987      1.0084228      54842.867    
     24300   301.71615      30663.302     -1443.0405      7296.3784      2168.0413      32595.919     -3322.429      -59.633032      1.0098721      54764.157    
     24400   305.47977      30658.283     -1511.9458      7296.3176      2256.3522      32544.643     -3310.3596     -46.62288       1.0084292      54842.515    
     24500   298.25429      30690.102     -1451.0107      7301.2823      2173.9551      32580.162     -3301.1083     -44.321795      1.0066417      54939.903    
     24600   301.97309      30554.709     -1482.4714      7303.0571      2138.5414      32671.226     -3455.543      -53.736879      1.0036712      55102.504    
     24700   298.00883      30629.125     -1468.4234      7296.4735      2146.591       32583.841     -3315.2135     -44.795016      1.0026932      55156.251    
     24800   297.1          30690.154     -1442.6373      7306.5998      2250.7728      32569.599     -3384.5403     -40.573993      1.002667       55157.688    
     24900   293.83505      30756.936     -1484.0305      7297.4362      2203.3818      32650.259     -3302.6024     -39.187803      1.003376       55118.714    
     25000   300.53456      30659.017     -1505.6316      7300.3571      2143.0383      32700.162     -3366.916      -43.923316      1.0055719      54998.35     
     25100   302.27074      30626.365     -1471.5112      7308.5507      2217.7618      32594.423     -3409.4292     -43.354063      1.0092927      54795.597    
     25200   296.97509      30607.822     -1486.9269      7287.3654      2229.9476      32575.141     -3379.237      -47.921939      1.0129653      54596.932    
     25300   294.74414      30578.357     -1487.0005      7290.7135      2142.1135      32609.671     -3369.5037     -36.566583      1.0160294      54432.278    
     25400   299.77413      30575.524     -1543.7359      7287.4113      2242.8628      32477.417     -3281.9228     -35.589551      1.0170181      54379.363    
     25500   301.78255      30617.746     -1557.7634      7279.4224      2222.1152      32629.59      -3350.2667     -34.668055      1.0173191      54363.273    
     25600   299.0459       30667.28      -1473.2286      7275.5279      2212.5411      32626.365     -3358.3925     -42.459994      1.0179416      54330.028    
     25700   299.1041       30566.684     -1488.0929      7270.0767      2215.0124      32549.455     -3356.5409     -50.103658      1.0170441      54377.971    
     25800   296.66783      30494.309     -1527.7405      7274.7145      2162.2938      32550.321     -3336.4719     -56.158539      1.0166535      54398.866    
     25900   294.98557      30584.367     -1528.7944      7272.2902      2201.1188      32569.276     -3312.3785     -42.099279      1.0179711      54328.455    
     26000   299.96948      30589.174     -1487.767       7288.7263      2152.4348      32601.919     -3337.8859     -55.280443      1.0200729      54216.511    
     26100   304.54946      30570.066     -1530.7693      7278.6028      2225.8922      32551.374     -3338.6361     -41.909704      1.0207787      54179.026    
     26200   298.69643      30631.25      -1474.2123      7291.2154      2158.3783      32598.122     -3337.0666     -31.135549      1.0207587      54180.088    
     26300   299.8418       30572.087     -1597.0635      7300.9665      2279.1826      32536.561     -3339.6489     -34.480559      1.0182584      54313.126    
     26400   297.40375      30470.127     -1542.6671      7296.6034      2131.4046      32501.799     -3297.8508     -43.752361      1.0179473      54329.722    
     26500   290.19441      30534.848     -1546.7508      7305.8645      2184.473       32531.158     -3324.0138     -42.304768      1.0195441      54244.633    
     26600   296.49741      30540.009     -1531.248       7294.3391      2156.093       32626.499     -3383.7545     -47.173641      1.0234511      54037.557    
     26700   301.34819      30541.293     -1552.8032      7297.033       2174.6254      32607.573     -3371.7919     -37.19858       1.0274342      53828.067    
     26800   300.42349      30593.605     -1521.22        7289.1525      2200.2657      32642.548     -3393.0879     -49.04666       1.0306426      53660.497    
     26900   297.42854      30649.305     -1521.3116      7297.59        2143.7164      32585.111     -3249.6985     -30.755051      1.031332       53624.629    
[...]
     98800   303.2234       30315.476     -1771.5977      7239.0842      2245.3622      32641.51      -3413.4366     -46.58623       1.07225        51578.267    
     98900   303.59861      30271.952     -1784.135       7242.4333      2207.3112      32638.044     -3410.9452     -42.157364      1.0719938      51590.591    
     99000   301.35643      30188.159     -1805.479       7245.1955      2183.6903      32588.906     -3405.7724     -38.077297      1.0737071      51508.268    
     99100   293.04848      30313.414     -1799.2257      7251.1304      2280.8788      32573.797     -3361.3969     -53.740961      1.0778774      51308.983    
     99200   297.76276      30346.603     -1815.6086      7233.4082      2224.7738      32682.997     -3361.1332     -37.588845      1.0799997      51208.159    
     99300   300.73893      30321.332     -1787.8124      7230.4065      2263.4906      32684.326     -3432.6983     -57.131269      1.0820224      51112.433    
     99400   297.96562      30333.33      -1785.7127      7228.3036      2318.13        32546.03      -3354.4953     -40.266114      1.0816007      51132.359    
     99500   303.21765      30230.226     -1802.9717      7232.9848      2248.6673      32532.606     -3343.7055     -57.5935        1.0788255      51263.891    
     99600   301.96996      30219.883     -1781.4018      7231.2316      2263.0827      32596.46      -3462.3533     -47.608469      1.0764521      51376.923    
     99700   296.82249      30189.856     -1828.14        7244.3425      2193.2171      32566.885     -3365.9036     -40.419231      1.0754657      51424.045    
     99800   295.5851       30123.351     -1826.9145      7234.6868      2226.4055      32542.538     -3422.4287     -51.664692      1.0751811      51437.657    
     99900   297.42372      30195.815     -1840.0887      7248.5249      2222.0363      32603.484     -3418.8304     -41.18637       1.0773282      51335.142    
    100000   300.32016      30230.387     -1766.5914      7232.4764      2215.7408      32571.091     -3407.8721     -36.875149      1.081456       51139.202    
    100100   299.51511      30316.24      -1792.4901      7245.642       2299.6629      32583.559     -3394.6        -47.716032      1.0853009      50958.03     
    100200   304.5064       30257.726     -1819.0444      7243.1287      2203.8498      32655.837     -3391.5683     -55.924228      1.0864         50906.474    
    100300   301.75345      30231.244     -1834.0395      7238.5714      2282.1969      32581.038     -3418.4421     -39.98159       1.0848621      50978.639    
    100400   293.96927      30236.79      -1785.6453      7229.5125      2241.4776      32564.684     -3392.2077     -42.519994      1.0800057      51207.873    
    100500   296.4612       30210.076     -1873.6616      7244.0408      2218.3129      32597.732     -3363.017      -34.323755      1.0741434      51487.35     
    100600   299.03532      30278.816     -1785.0264      7243.073       2240.1743      32609.988     -3407.6716     -40.605945      1.0716712      51606.125    
    100700   296.03089      30367.099     -1787.3178      7239.7457      2226.7987      32703.69      -3395.662      -38.880425      1.0714471      51616.916    
    100800   301.55119      30314.787     -1781.8021      7233.4511      2279.3334      32581.444     -3366.1645     -50.126898      1.0726548      51558.803    
    100900   298.6823       30329.425     -1792.1536      7239.9083      2338.7389      32535.687     -3370.6154     -41.536614      1.0742051      51484.392    
    101000   302.86642      30188.156     -1790.015       7253.4576      2176.988       32567.583     -3395.0657     -44.045107      1.0763616      51381.242    
    101100   295.06639      30251.046     -1802.2037      7237.5982      2235.0847      32698.712     -3495.0914     -44.431698      1.0786672      51271.418    
    101200   293.95827      30241.727     -1805.3083      7228.4893      2236.023       32583.812     -3380.2526     -41.515126      1.0805254      51183.246    
    101300   297.42036      30249.075     -1826.5808      7225.3836      2192.8643      32609.613     -3338.2936     -34.833985      1.0814505      51139.461    
    101400   301.01287      30307.826     -1773.3222      7233.7102      2295.9986      32639.707     -3450.5315     -58.071165      1.0817548      51125.076    
    101500   299.94081      30358.891     -1792.713       7232.1509      2316.1612      32597.758     -3372.5965     -41.494898      1.0796801      51223.318    
    101600   303.40781      30247.611     -1759.7231      7234.612       2187.1784      32606.604     -3391.1844     -47.614635      1.0762678      51385.72     
    101700   292.52981      30320.775     -1800.5571      7248.2414      2243.8489      32608.604     -3378.3132     -20.284386      1.0710918      51634.04     
    101800   300.79019      30202.161     -1801.9603      7255.9736      2172.4423      32627.05      -3418.0422     -53.519151      1.0670387      51830.166    
    101900   302.18948      30335.447     -1744.7471      7258.1872      2231.1606      32634.151     -3417.4792     -46.120193      1.0659665      51882.301    
    102000   301.34191      30394.372     -1784.528       7246.7386      2334.8704      32620.667     -3402.7305     -38.860926      1.0668357      51840.032    
    102100   297.13521      30386.022     -1756.7092      7231.2322      2243.906       32657.782     -3372.2293     -37.191659      1.0713978      51619.293    
    102200   297.15581      30314.915     -1758.9916      7234.8488      2285.5823      32614.954     -3436.0372     -44.430494      1.0770518      51348.315    
    102300   297.22722      30290.754     -1799.6732      7245.8369      2168.2175      32692.229     -3394.8001     -40.453073      1.0816524      51129.913    
    102400   301.30659      30274.525     -1793.1455      7234.9133      2173.7317      32651.822     -3361.8908     -50.965715      1.083807       51028.268    
    102500   303.69176      30353.286     -1800.1694      7240.1216      2294.0287      32626.525     -3383.7405     -43.326654      1.0828448      51073.612    
    102600   305.94915      30311.061     -1800.6238      7232.9201      2198.0633      32763.286     -3456.6734     -45.332146      1.0793288      51239.988    
    102700   302.77145      30265.084     -1827.2497      7238.2935      2223.9008      32652.45      -3403.0073     -39.36035       1.0759667      51400.097    
    102800   299.05679      30284.283     -1815.1355      7240.6038      2184.416       32684.053     -3379.0735     -50.530886      1.0742315      51483.127    
    102900   295.0703       30358.315     -1825.1134      7256.1374      2259.2798      32652.847     -3356.354      -49.680435      1.0756231      51416.519    
    103000   297.29762      30383.78      -1841.8093      7239.3988      2277.5349      32718.576     -3371.3065     -57.951667      1.0776556      51319.545    
    103100   302.95732      30357.559     -1807.6791      7246.0707      2286.7062      32661.369     -3407.6659     -39.535742      1.080109       51202.974    
    103200   306.10154      30324.433     -1836.4867      7244.0057      2249.7934      32658.965     -3358.5091     -53.396953      1.0817925      51123.294    
    103300   296.36307      30334.975     -1813.8239      7252.337       2310.1487      32580.641     -3368.1777     -47.054715      1.0828575      51073.014    
    103400   297.03972      30275.718     -1830.9357      7253.298       2231.8479      32660.228     -3416.8716     -41.170995      1.0820457      51111.329    
    103500   302.74738      30215.484     -1832.0973      7264.3153      2189.5095      32631.273     -3413.0993     -44.311674      1.0821296      51107.368    
    103600   303.13225      30285.709     -1813.6376      7256.1447      2208.1718      32645.249     -3380.2516     -51.075382      1.083046       51064.125    
    103700   306.08507      30341.05      -1793.8464      7249.1296      2189.1081      32681.198     -3371.1272     -34.218041      1.0842405      51007.867    
    103800   299.95372      30398.922     -1784.1986      7255.8192      2227.1674      32660.117     -3342.487      -39.197736      1.0838498      51026.253    
    103900   292.0746       30363.203     -1777.8268      7254.0179      2235.0247      32633.269     -3353.0785     -50.658481      1.0817956      51123.145    
    104000   301.6223       30216.012     -1804.791       7245.0307      2188.2898      32664.891     -3451.4439     -46.405065      1.0802477      51196.403    
    104100   301.91777      30256.071     -1795.1432      7247.324       2159.5413      32621.013     -3345.9079     -51.050201      1.0779016      51307.831    
    104200   303.83807      30312.144     -1794.9906      7260.9898      2197.2376      32649.696     -3377.8569     -44.225946      1.0766662      51366.707    
    104300   301.36872      30370.306     -1833.7956      7239.9443      2265.4234      32675.634     -3353.9396     -45.132935      1.0773552      51333.857    
    104400   300.42453      30242.652     -1806.8546      7233.1585      2222.8366      32621.49      -3393.3938     -53.700891      1.0798852      51213.588    
    104500   297.03715      30237.634     -1769.8274      7240.6455      2245.484       32486.422     -3336.3881     -48.897614      1.081828       51121.617    
    104600   306.66537      30127.856     -1855.2222      7236.7755      2198.5753      32593.57      -3410.7342     -54.645951      1.081369       51143.315    
    104700   299.29466      30313.193     -1803.0732      7249.742       2307.803       32576.757     -3395.8725     -42.189114      1.0829234      51069.905    
    104800   296.45249      30447.897     -1795.1184      7245.284       2227.6284      32710.948     -3323.2959     -37.628667      1.0831686      51058.346    
    104900   310.17125      30297.7       -1827.5877      7219.5054      2270.9832      32707.458     -3451.8506     -39.001584      1.0825952      51085.388    
    105000   296.6909       30330.006     -1816.6321      7239.6467      2212.3924      32734.07      -3410.8775     -47.551236      1.0813604      51143.723    
    105100   297.59468      30251.624     -1848.2351      7244.0757      2247.1534      32514.61      -3281.6348     -42.632288      1.0805198      51183.507    
    105200   300.23884      30231.224     -1843.3556      7243.2964      2230.2474      32616.137     -3376.7943     -56.728011      1.0805751      51180.891    
    105300   302.76184      30252.779     -1872.6735      7246.367       2240.9065      32602.408     -3340.969      -42.478486      1.0809223      51164.451    
    105400   300.33805      30369.726     -1819.7148      7250.0605      2262.8277      32680.705     -3386.8462     -37.83893       1.0817422      51125.669    
    105500   305.20096      30320.295     -1825.2974      7234.6398      2275.1291      32627.195     -3375.2626     -36.515142      1.0816869      51128.286    
    105600   298.91689      30278.523     -1791.49        7244.7404      2263.6402      32551.085     -3355.1396     -54.125392      1.082897       51071.15     
    105700   293.18367      30283.981     -1878.5015      7235.2856      2320.8894      32635.731     -3411.5997     -37.736682      1.0826846      51081.17     
    105800   295.45454      30247.847     -1827.8048      7242.9303      2190.0972      32667.306     -3414.6804     -30.063777      1.0840291      51017.814    
    105900   300.81627      30254.971     -1839.8484      7239.8457      2267.9736      32606.875     -3399.9939     -40.405518      1.0850181      50971.313    
    106000   304.2328       30284.311     -1829.5784      7241.396       2260.9536      32633.152     -3418.9935     -22.269504      1.0859049      50929.685    
    106100   301.40684      30312.134     -1810.0618      7238.0092      2319.9431      32607.202     -3418.5284     -42.361884      1.0871594      50870.915    
    106200   301.41687      30258.746     -1846.1574      7237.611       2269.468       32585.359     -3371.4534     -34.880627      1.087742       50843.668    
    106300   303.22588      30213.11      -1830.9875      7246.8897      2235.208       32501.95      -3332.8298     -25.980182      1.087688       50846.196    
    106400   299.27156      30284.085     -1833.8627      7254.7978      2293.0346      32624.607     -3425.6373     -47.766309      1.0858362      50932.906    
    106500   305.07369      30226.198     -1824.8871      7253.7114      2234.7838      32554.09      -3369.3681     -42.061561      1.0832385      51055.051    
    106600   303.92703      30336.147     -1784.4989      7254.3029      2276.4792      32629.928     -3415.2605     -45.237537      1.0812486      51149.008    
    106700   306.11649      30314.715     -1859.6312      7252.5581      2259.9453      32633.065     -3353.8364     -40.92441       1.0775437      51324.876    
    106800   301.39929      30255.388     -1852.4578      7259.8511      2317.4359      32524.447     -3366.859      -48.986199      1.0763369      51382.422    
    106900   298.0238       30256.221     -1844.3013      7255.7738      2173.1577      32606.505     -3315.0756     -41.434641      1.0779879      51303.727    
    107000   298.85836      30266.639     -1841.6605      7252.6147      2265.9705      32614.299     -3399.5684     -46.020463      1.0818745      51119.417    
    107100   307.62814      30205.959     -1804.0411      7250.7989      2213.4948      32586.142     -3414.9056     -47.901493      1.0870244      50877.235    
    107200   303.4202       30334.993     -1817.0267      7249.9701      2260.6023      32634.267     -3366.9502     -46.656353      1.0903682      50721.21     
    107300   306.20959      30316.936     -1841.497       7240.9175      2359.7573      32494.732     -3305.3395     -51.114927      1.0902368      50727.324    
    107400   296.87564      30326.483     -1774.0082      7258.08        2262.0417      32578.709     -3372.453      -45.954687      1.0879305      50834.859    
    107500   299.24418      30228.493     -1822.1551      7254.5759      2199.4599      32601.995     -3380.4675     -46.690334      1.0818667      51119.789    
    107600   298.57782      30266.276     -1830.1089      7246.9674      2251.6822      32634.197     -3405.4548     -51.371441      1.075933       51401.712    
    107700   306.01327      30248.703     -1835.9965      7259.6652      2243.1542      32592.832     -3380.5116     -52.134864      1.0742395      51482.741    
    107800   301.77879      30351.436     -1856.9726      7245.8521      2374.4884      32614.439     -3414.4821     -34.375934      1.0766233      51368.75     
    107900   296.43869      30325.07      -1816.5421      7249.004       2289.1742      32566.519     -3338.8814     -43.369553      1.0812864      51147.22     
    108000   295.29903      30237.989     -1817.1138      7253.3882      2247.5738      32567.22      -3386.025      -48.701983      1.0840371      51017.438    
    108100   298.8027       30231.541     -1819.5331      7253.5213      2263.9773      32523.112     -3362.0158     -48.717556      1.0848667      50978.427    
    108200   301.36977      30270.912     -1815.5198      7250.0499      2294.7933      32564.994     -3389.6363     -54.027148      1.0832671      51053.703    
    108300   299.22741      30327.465     -1789.3696      7254.969       2281.8559      32573.47      -3371.7508     -42.432656      1.0808997      51165.523    
    108400   301.8855       30306.927     -1813.7663      7253.2946      2300.4947      32616.223     -3425.6533     -45.635869      1.07804        51301.246    
    108500   302.89001      30288.505     -1833.6961      7246.5114      2223.6941      32626.251     -3361.1507     -34.484133      1.0751145      51440.843    
    108600   298.36772      30299.776     -1772.7674      7246.2064      2237.2675      32574.083     -3370.1779     -37.19964       1.0743303      51478.39     
    108700   299.00185      30233.334     -1835.1951      7243.2012      2248.0247      32601.523     -3412.6014     -31.300636      1.0759606      51400.392    
    108800   298.98336      30240.022     -1860.106       7255.042       2206.4148      32636.991     -3376.2008     -42.104249      1.0801641      51200.365    
    108900   302.91634      30301.184     -1821.5482      7247.4061      2325.3562      32557.1       -3403.6228     -24.237776      1.086492       50902.166    
    109000   304.56676      30314.717     -1833.9768      7249.0027      2251.6842      32601.575     -3334.7189     -38.647239      1.0897964      50747.823    
    109100   303.95332      30238.899     -1861.6122      7254.1941      2276.6571      32512.099     -3329.3712     -33.081212      1.0900548      50735.795    
    109200   299.47322      30251.07      -1824.7945      7238.1558      2275.2172      32580.619     -3393.3859     -42.729119      1.0885972      50803.729    
    109300   300.23779      30245.358     -1816.9685      7246.6355      2233.7438      32608.801     -3414.6477     -31.868339      1.0840512      51016.774    
    109400   300.92261      30279.702     -1832.3149      7235.5013      2291.598       32582.111     -3381.6767     -35.918357      1.0787736      51266.358    
    109500   302.30922      30317.309     -1775.0672      7239.4473      2268.9797      32540.117     -3330.7216     -44.217019      1.0763316      51382.674    
    109600   303.78969      30333.408     -1846.6257      7252.4131      2243.9056      32667.184     -3380.2211     -22.370316      1.0746408      51463.515    
    109700   300.30628      30333.174     -1815.1615      7250.8643      2256.5386      32648.443     -3409.4155     -16.726147      1.0759934      51398.823    
    109800   296.70542      30280.525     -1809.0698      7246.5581      2213.6363      32662.624     -3408.4179     -44.259043      1.0789561      51257.686    
    109900   297.88671      30247.231     -1813.0709      7246.3963      2201.921       32625.189     -3378.843      -54.320913      1.0826249      51083.984    
    110000   298.32287      30296.34      -1818.7571      7241.5404      2260.2234      32655.662     -3418.2191     -43.344656      1.08593        50928.507    
    110100   301.28021      30371.204     -1813.7139      7245.7186      2236.6         32655.273     -3332.7171     -37.666148      1.0884723      50809.558    
    110128   305.97437      30320.127     -1828.728       7245.8337      2297.8206      32549.686     -3327.4681     -34.600831      1.0887886      50794.794    
Loop time of 1088.82 on 6 procs for 100000 steps with 5016 atoms

Performance: 7.935 ns/day, 3.025 hours/ns, 91.842 timesteps/s, 460.682 katom-step/s
98.9% CPU use with 6 MPI tasks x no OpenMP threads

MPI task timing breakdown:
Section |  min time  |  avg time  |  max time  |%varavg| %total
---------------------------------------------------------------
Pair    | 362.35     | 378.62     | 399.2      |  72.7 | 34.77
Bond    | 242.82     | 288.23     | 340.98     | 209.5 | 26.47
Kspace  | 249        | 321.28     | 383.53     | 272.9 | 29.51
Neigh   | 21.866     | 21.933     | 22.034     |   1.1 |  2.01
Comm    | 33.628     | 35.284     | 37.321     |  18.8 |  3.24
Output  | 0.16424    | 0.18242    | 0.24071    |   6.2 |  0.02
Modify  | 27.09      | 28.665     | 29.905     |  18.3 |  2.63
Other   |            | 14.62      |            |       |  1.34

Nlocal:            836 ave         844 max         826 min
Histogram: 1 1 0 0 1 0 0 0 2 1
Nghost:        8471.17 ave        8483 max        8455 min
Histogram: 1 0 1 0 0 0 1 1 1 1
Neighs:         298671 ave      301768 max      295692 min
Histogram: 1 0 1 2 0 0 0 0 0 2

Total # of neighbors = 1792024
Ave neighs/atom = 357.26156
Ave special neighs/atom = 6.2631579
Neighbor list builds = 2574
Dangerous builds = 0
unfix relax



Total wall time: 0:19:29
