LAMMPS (22 Dec 2022)
WARNING: Using I/O redirection is unreliable with parallel runs. Better to use the -in switch to read input files. (../lammps.cpp:531)
Reading data file ...
  orthogonal box = (0 0 0) to (49.718356 49.718356 49.718356)
  1 by 2 by 3 MPI processor grid
  reading atoms ...
  5016 atoms
  scanning bonds ...
  5 = max bonds/atom
  scanning angles ...
  18 = max angles/atom
  scanning dihedrals ...
  29 = max dihedrals/atom
  scanning impropers ...
  16 = max impropers/atom
  reading bonds ...
  5412 bonds
  reading angles ...
  11088 angles
  reading dihedrals ...
  17688 dihedrals
  reading impropers ...
  6996 impropers
Finding 1-2 1-3 1-4 neighbors ...
  special bond factors lj:    0        0        1       
  special bond factors coul:  0        0        1       
     4 = max # of 1-2 neighbors
     9 = max # of 1-3 neighbors
    25 = max # of special neighbors
  special bonds CPU = 0.000 seconds
  read_data CPU = 0.108 seconds
PPPM initialization ...
  using 12-bit tables for long-range coulomb (../kspace.cpp:342)
  G vector (1/distance) = 0.22124011
  grid = 15 15 15
  stencil order = 5
  estimated absolute RMS force accuracy = 0.024272062
  estimated relative force accuracy = 7.3094594e-05
  using double precision KISS FFT
  3d grid and FFT values/proc = 2600 675
Generated 21 of 21 mixed pair_coeff terms from sixthpower/sixthpower mixing rule
Neighbor list info ...
  update: every = 1 steps, delay = 0 steps, check = yes
  max neighbors/atom: 2000, page size: 100000
  master list distance cutoff = 11.5
  ghost atom cutoff = 11.5
  binsize = 5.75, bins = 9 9 9
  1 neighbor lists, perpetual/occasional/extra = 1 0 0
  (1) pair lj/class2/coul/long, perpetual
      attributes: half, newton on
      pair build: half/bin/newton
      stencil: half/bin/3d
      bin: standard
Setting up cg style minimization ...
  Unit style    : real
  Current step  : 0
  PPPM/cg optimization cutoff: 1e-05
  Total charged atoms: 100.0%
  Min/max charged atoms/proc: 100.0% 100.0%
Per MPI rank memory allocation (min/avg/max) = 28.96 | 29.29 | 29.39 Mbytes
   Step          Temp          E_pair         E_mol          TotEng         Press     
         0   0              2211.618       33129.654      35341.272      3567.9886    
       138   0              834.24146      28407.104      29241.346     -5.0424981    
Loop time of 2.07984 on 6 procs for 138 steps with 5016 atoms

98.4% CPU use with 6 MPI tasks x no OpenMP threads

Minimization stats:
  Stopping criterion = energy tolerance
  Energy initial, next-to-last, final = 
      35341.2717545144    29241.510122275   29241.3457029421
  Force two-norm initial, final = 2439.5493 59.735616
  Force max component initial, final = 110.02981 27.808055
  Final line search alpha, max atom move = 0.015812368 0.4397112
  Iterations, force evaluations = 138 274

MPI task timing breakdown:
Section |  min time  |  avg time  |  max time  |%varavg| %total
---------------------------------------------------------------
Pair    | 0.48425    | 0.58381    | 0.82481    |  14.9 | 28.07
Bond    | 0.80115    | 0.88511    | 0.95069    |   5.2 | 42.56
Kspace  | 0.32661    | 0.55668    | 0.7414     |  17.5 | 26.77
Neigh   | 0.010935   | 0.010965   | 0.010982   |   0.0 |  0.53
Comm    | 0.030352   | 0.031987   | 0.0345     |   0.7 |  1.54
Output  | 0          | 0          | 0          |   0.0 |  0.00
Modify  | 0          | 0          | 0          |   0.0 |  0.00
Other   |            | 0.0113     |            |       |  0.54

Nlocal:            836 ave         994 max         732 min
Histogram: 1 0 2 1 0 0 1 0 0 1
Nghost:         4715.5 ave        4765 max        4627 min
Histogram: 1 0 0 0 0 0 1 3 0 1
Neighs:         119467 ave      167152 max       99066 min
Histogram: 2 2 0 1 0 0 0 0 0 1

Total # of neighbors = 716804
Ave neighs/atom = 142.90351
Ave special neighs/atom = 6.2631579
Neighbor list builds = 3
Dangerous builds = 0
PPPM initialization ...
  using 12-bit tables for long-range coulomb (../kspace.cpp:342)
  G vector (1/distance) = 0.22124011
  grid = 15 15 15
  stencil order = 5
  estimated absolute RMS force accuracy = 0.024272062
  estimated relative force accuracy = 7.3094594e-05
  using double precision KISS FFT
  3d grid and FFT values/proc = 2600 675
Generated 21 of 21 mixed pair_coeff terms from sixthpower/sixthpower mixing rule
Setting up Verlet run ...
  Unit style    : real
  Current step  : 138
  Time step     : 1
Per MPI rank memory allocation (min/avg/max) = 28.21 | 28.23 | 28.26 Mbytes
   Step          Temp          PotEng         E_vdwl         E_coul         E_bond        E_angle        E_dihed        E_impro        Density         Volume    
       138   0              29241.346     -129.03823      7677.4841      544.68067      30852.832     -2903.9842     -86.4246        0.44999999     122899.55    
       200   143.22015      31130.623     -36.006912      7673.7303      1361.4356      31758.126     -2836.7877     -74.295771      0.44999999     122899.55    
       300   242.19664      32468.107      51.66086       7653.752       2002.6526      32383.92      -2853.332      -54.189333      0.44999999     122899.55    
       400   281.98293      32833.045      37.524739      7642.628       2137.6548      32695.961     -2907.479      -54.82046       0.44999999     122899.55    
       500   294.62849      33061.736      84.811112      7635.2237      2283.2872      32769.947     -2935.9444     -53.126641      0.44999999     122899.55    
       600   301.60206      33024.398      28.548295      7624.1809      2257.6896      32759.258     -2874.1438     -46.31983       0.44999999     122899.55    
       700   297.25053      32984.533      56.964539      7609.8316      2363.5625      32675.101     -2943.82       -49.637583      0.44999999     122899.55    
       800   302.00095      32882.116      18.963484      7618.111       2280.0447      32762.44      -3028.3229     -40.225545      0.44999999     122899.55    
       900   302.2096       32848.662      29.109932      7611.6553      2312.1188      32687.221     -3008.5212     -55.258956      0.44999999     122899.55    
      1000   301.25431      32807.593      33.579328      7611.3748      2308.7636      32630.442     -3030.1983     -16.464179      0.44999999     122899.55    
      1100   304.57297      32760.862      40.095769      7596.9884      2279.2246      32696.373     -3072.5378     -47.125819      0.44999999     122899.55    
      1200   301.55006      32730.108      5.6136418      7594.2577      2371.3468      32686.177     -3141.6147     -52.535054      0.44999999     122899.55    
      1300   302.82482      32735.083      18.498914      7595.4546      2360.6973      32653.795     -3111.4166     -48.250186      0.44999999     122899.55    
      1400   306.15664      32675.017      5.0242734      7592.0582      2348.6798      32638.19      -3118.6271     -56.718788      0.44999999     122899.55    
      1500   299.33494      32643.657     -3.0940217      7587.2848      2302.3855      32636.52      -3093.6758     -52.533046      0.44999999     122899.55    
      1600   301.74379      32587.316      34.544539      7575.977       2290.1217      32657.041     -3180.9794     -54.209244      0.44999999     122899.55    
      1700   297.10458      32637.249      28.86765       7581.2624      2316.2824      32641.644     -3159.9429     -33.936531      0.44999999     122899.55    
      1800   309.4595       32500.861      22.308029      7582.9963      2280.477       32539.28      -3145.4654     -43.407053      0.44999999     122899.55    
      1900   304.86174      32584.597     -5.4718054      7569.1126      2375.0774      32632.825     -3208.471      -40.592928      0.44999999     122899.55    
      2000   294.8305       32574.813      23.551787      7560.1822      2336.0487      32663.866     -3222.1963     -49.505424      0.44999999     122899.55    
      2100   294.45103      32497.165     -7.890036       7564.7455      2258.6688      32651.336     -3174.788      -56.788575      0.44999999     122899.55    
      2200   301.66535      32519.178     -37.237518      7561.7477      2323.0165      32636.863     -3187.8363     -38.76444       0.44999999     122899.55    
      2300   297.88978      32581.861      9.755976       7569.6037      2310.7128      32649.603     -3174.2078     -44.633585      0.44999999     122899.55    
      2400   302.57712      32545.404     -36.448804      7567.4111      2374.2112      32651.867     -3220.8461     -49.156597      0.44999999     122899.55    
      2500   302.65262      32453.913     -23.584925      7558.4509      2257.2784      32697.829     -3247.6067     -46.364734      0.44999999     122899.55    
      2600   294.84744      32456.198     -0.6888492      7560.109       2351.8571      32567.276     -3248.7041     -31.337108      0.44999999     122899.55    
      2700   303.85744      32446.8       -28.412926      7559.8784      2312.4443      32618.2       -3217.769      -54.444313      0.44999999     122899.55    
      2800   301.53902      32465.878     -22.398969      7556.8884      2335.2936      32641.165     -3261.0377     -42.044734      0.44999999     122899.55    
      2900   299.25266      32532.69       8.5520457      7549.1116      2335.5157      32651.406     -3239.2315     -29.405976      0.44999999     122899.55    
      3000   303.64855      32406.957     -11.009399      7553.9642      2269.3324      32687.487     -3312.5093     -36.225514      0.44999999     122899.55    
      3100   304.7715       32432.045     -62.533914      7552.6102      2254.9295      32637.724     -3169.7964     -37.062867      0.44999999     122899.55    
      3200   305.01734      32392.046      7.1166367      7562.0376      2302.8928      32672.28      -3352.6304     -56.571753      0.44999999     122899.55    
      3300   305.37913      32307.205     -77.092194      7545.0874      2321.729       32573.438     -3273.2789     -39.662131      0.44999999     122899.55    
      3400   301.12793      32308.962     -34.001635      7557.6711      2265.3759      32527.591     -3223.1291     -42.703031      0.44999999     122899.55    
      3500   299.10887      32324.809     -57.618398      7553.1177      2259.2837      32629.137     -3272.1822     -44.918353      0.44999999     122899.55    
      3600   291.80029      32411.363     -12.355869      7547.0328      2351.2806      32585.01      -3273.6641     -42.360425      0.44999999     122899.55    
      3700   294.00024      32418.651     -65.86507       7564.7101      2251.1946      32678.318     -3213.73       -53.895647      0.44999999     122899.55    
      3800   297.10699      32353.661     -21.298354      7556.5181      2257.7025      32593.285     -3250.7206     -40.825551      0.44999999     122899.55    
      3900   296.08816      32241.452     -58.348941      7555.6688      2259.7143      32659.715     -3380.6673     -53.235188      0.44999999     122899.55    
      4000   305.30207      32293.595     -43.994729      7559.1384      2238.0342      32607.765     -3289.4247     -34.685919      0.44999999     122899.55    
      4100   303.56009      32431.175     -49.638627      7565.2561      2325.0858      32654.457     -3272.1893     -47.893861      0.44999999     122899.55    
      4200   301.36417      32422.951     -58.54774       7563.2265      2371.5906      32630.587     -3293.5557     -47.115486      0.44999999     122899.55    
      4300   300.03137      32391.821     -63.68085       7561.43        2228.7499      32727.993     -3275.4383     -44.008925      0.44999999     122899.55    
      4400   298.22294      32387.67      -58.762393      7548.4421      2332.0169      32626.232     -3264.4209     -51.908482      0.44999999     122899.55    
      4500   301.28597      32321.976     -58.589502      7544.8409      2311.5026      32594.495     -3267.63       -60.13907       0.44999999     122899.55    
      4600   290.40751      32409.988     -52.461844      7558.8081      2334.5654      32591.686     -3250.789      -29.137714      0.44999999     122899.55    
      4700   302.47294      32369.05      -57.508657      7553.4529      2393.0399      32555.218     -3279.475      -52.367262      0.44999999     122899.55    
      4800   295.56473      32311.193     -92.799522      7550.8652      2276.4118      32690.53      -3318.608      -50.863366      0.44999999     122899.55    
      4900   298.06127      32330.713     -43.98272       7535.8263      2309.5225      32586.837     -3259.6266     -52.333833      0.44999999     122899.55    
      5000   295.93986      32439.703     -46.384035      7550.0821      2298.061       32708.562     -3278.0509     -45.998073      0.44999999     122899.55    
      5100   295.71552      32354.309     -52.176133      7548.6877      2321.6955      32644.568     -3318.5258     -44.296763      0.44999999     122899.55    
      5200   302.78763      32329.479     -60.123112      7542.167       2312.2118      32613.867     -3292.0879     -41.666048      0.44999999     122899.55    
      5300   304.20707      32219.585     -75.839296      7552.289       2283.5931      32526.058     -3276.3358     -45.51999       0.44999999     122899.55    
      5400   298.31005      32255.328     -72.491035      7547.1136      2250.3541      32590.257     -3268.1017     -46.713913      0.44999999     122899.55    
      5500   300.0189       32329.001     -44.167527      7538.0272      2341.1143      32650.898     -3366.709      -45.484642      0.44999999     122899.55    
      5600   302.35709      32331.106     -81.429337      7539.9481      2312.8583      32663.526     -3307.8454     -50.720769      0.44999999     122899.55    
      5700   304.45453      32303.338     -89.229427      7551.9445      2332.4588      32669.969     -3374.0481     -43.043491      0.44999999     122899.55    
      5800   302.41565      32304.913     -78.265822      7545.6338      2305.0686      32671.56      -3333.0385     -61.143429      0.44999999     122899.55    
      5900   303.86551      32381.042     -76.267962      7547.4694      2336.4814      32659.928     -3279.6871     -62.691852      0.44999999     122899.55    
      6000   301.57942      32316.864     -51.162573      7551.3045      2340.6724      32567.922     -3298.2236     -48.67107       0.44999999     122899.55    
      6100   302.50284      32313.411     -28.620828      7549.4195      2315.9901      32510.709     -3236.1033     -51.337332      0.44999999     122899.55    
      6200   301.84502      32323.013     -87.181619      7545.8292      2323.1781      32633.106     -3291.6618     -50.311882      0.44999999     122899.55    
      6300   299.90371      32382.745     -33.125396      7553.9735      2356.7061      32659.814     -3354.5496     -51.432078      0.44999999     122899.55    
      6400   300.6244       32291.339     -96.672137      7553.7575      2292.6442      32667         -3334.439      -42.4788        0.44999999     122899.55    
      6500   295.61577      32395.722     -51.039506      7547.5303      2377.5165      32622.378     -3307.7094     -42.965469      0.44999999     122899.55    
      6600   304.88972      32332.784     -78.67142       7532.4698      2354.2275      32592.658     -3287.2456     -31.391354      0.44999999     122899.55    
      6700   293.53117      32303.882     -101.32941      7542.5473      2288.5924      32703.321     -3338.6633     -41.253605      0.44999999     122899.55    
      6800   300.85068      32312.376     -124.54051      7545.1105      2346.5929      32686.181     -3352.3131     -40.920066      0.44999999     122899.55    
      6900   298.11746      32329.316     -81.534501      7545.4673      2318.862       32660.829     -3318.2505     -47.038448      0.44999999     122899.55    
      7000   300.7549       32298.476     -156.15953      7545.0831      2365.5267      32626.869     -3300.6334     -32.583227      0.44999999     122899.55    
      7100   302.87184      32301.139     -110.37264      7538.7281      2298.5087      32687.103     -3311.7158     -51.838465      0.44999999     122899.55    
      7200   305.50891      32262.035     -74.627745      7537.42        2277.6325      32610.134     -3292.2148     -48.458438      0.44999999     122899.55    
      7300   306.15391      32298.129     -101.46081      7534.5432      2276.8688      32657.817     -3271.5208     -48.373475      0.44999999     122899.55    
      7400   299.70313      32212.782     -138.99188      7540.7944      2265.4121      32606.539     -3267.9713     -43.068459      0.44999999     122899.55    
      7500   301.64597      32230.106     -102.56265      7530.6972      2318.0927      32637.926     -3367.1705     -38.126455      0.44999999     122899.55    
      7600   297.58512      32228.112     -127.47092      7543.5829      2299.0994      32616.959     -3314.6718     -41.129466      0.44999999     122899.55    
      7700   296.50539      32308.163     -109.42079      7540.418       2336.7656      32626.807     -3283.3645     -55.399504      0.44999999     122899.55    
      7800   303.13059      32216.088     -117.81308      7539.2224      2258.3145      32605.303     -3298.5787     -23.458248      0.44999999     122899.55    
      7900   297.56245      32096.608     -109.76805      7546.4607      2187.8422      32577.025     -3313.7271     -45.287728      0.44999999     122899.55    
      8000   296.74647      32277.903     -119.94751      7543.7314      2386.2967      32621.221     -3363.6552     -43.890312      0.44999999     122899.55    
      8100   299.64178      32340.783     -107.12477      7540.5039      2329.3781      32677.373     -3324.2077     -29.120913      0.44999999     122899.55    
      8200   298.00304      32234.829     -103.55308      7535.3045      2291.2893      32619.99      -3313.804      -48.005866      0.44999999     122899.55    
      8300   299.43465      32212.162     -122.36417      7538.7119      2282.5885      32580.402     -3268.6743     -51.552925      0.44999999     122899.55    
      8400   296.63325      32260.491     -110.7403       7542.1709      2278.2471      32624.852     -3269.798      -58.266684      0.44999999     122899.55    
      8500   302.38376      32191.548     -141.43602      7540.2145      2286.1608      32575.329     -3278.2955     -43.661247      0.44999999     122899.55    
      8600   297.07271      32273.761     -114.11817      7533.1421      2300.8938      32650.247     -3312.3747     -37.941323      0.44999999     122899.55    
      8700   293.8654       32145.664     -160.06388      7547.3594      2314.0225      32551.528     -3320.7589     -39.342909      0.44999999     122899.55    
      8800   296.23296      32183.726     -145.82379      7544.4927      2333.2721      32649.91      -3409.8996     -42.560959      0.44999999     122899.55    
      8900   294.72708      32189.49      -146.90156      7544.1853      2305.3343      32627.723     -3346.8555     -48.524551      0.44999999     122899.55    
      9000   297.20658      32234.75      -129.81797      7543.6577      2264.8396      32596.03      -3246.606      -48.786068      0.44999999     122899.55    
      9100   297.33475      32236.465     -165.68897      7543.5576      2266.2594      32630.484     -3248.1913     -45.134149      0.44999999     122899.55    
      9200   298.77296      32152.848     -157.58258      7539.5664      2224.3708      32625.728     -3284.8553     -49.813041      0.44999999     122899.55    
      9300   299.38747      32234.348     -140.94707      7527.8064      2360.2283      32612.604     -3319.2482     -61.758437      0.44999999     122899.55    
      9400   301.77698      32264.18      -151.53955      7532.4295      2289.3869      32664.203     -3276.1091     -49.199054      0.44999999     122899.55    
      9500   299.11554      32213.174     -105.03391      7533.594       2270.2326      32596.721     -3303.1751     -32.616282      0.44999999     122899.55    
      9600   300.72499      32158.576     -132.42936      7534.3996      2271.5454      32560.302     -3286.0437     -41.776073      0.44999999     122899.55    
      9700   293.62145      32195.97      -164.08148      7533.6568      2304.2371      32612.273     -3294.0909     -48.612728      0.44999999     122899.55    
      9800   295.70371      32133.065     -176.82261      7535.7873      2299.6336      32555.507     -3294.3315     -40.751231      0.44999999     122899.55    
      9900   302.07738      32268.252     -160.51786      7520.3623      2404.7762      32615.565     -3311.0228     -54.06299       0.44999999     122899.55    
     10000   297.03226      32197.043     -129.95349      7539.3286      2299.5187      32515.233     -3236.742      -43.891309      0.44999999     122899.55    
     10100   295.28738      32178.992     -128.41175      7530.6653      2241.6448      32665.919     -3330.2536     -52.378894      0.44999999     122899.55    
     10138   299.73799      32163.598     -173.58474      7531.2582      2308.7704      32618.825     -3337.0492     -36.930504      0.44999999     122899.55    
Loop time of 82.4644 on 6 procs for 10000 steps with 5016 atoms

Performance: 10.477 ns/day, 2.291 hours/ns, 121.264 timesteps/s, 608.263 katom-step/s
99.2% CPU use with 6 MPI tasks x no OpenMP threads

MPI task timing breakdown:
Section |  min time  |  avg time  |  max time  |%varavg| %total
---------------------------------------------------------------
Pair    | 13.044     | 15.554     | 22.862     |  86.0 | 18.86
Bond    | 20.809     | 27.774     | 34.897     |  84.8 | 33.68
Kspace  | 19.922     | 34.08      | 43.498     | 127.9 | 41.33
Neigh   | 1.1168     | 1.1313     | 1.143      |   1.0 |  1.37
Comm    | 2.1216     | 2.5334     | 2.7198     |  12.5 |  3.07
Output  | 0.045143   | 0.048084   | 0.052226   |   1.2 |  0.06
Modify  | 0.39468    | 0.44774    | 0.53939    |   7.8 |  0.54
Other   |            | 0.8961     |            |       |  1.09

Nlocal:            836 ave        1056 max         752 min
Histogram: 3 1 0 1 0 0 0 0 0 1
Nghost:           4731 ave        4849 max        4605 min
Histogram: 1 1 1 0 0 0 0 1 0 2
Neighs:         123401 ave      182164 max      103836 min
Histogram: 3 1 1 0 0 0 0 0 0 1

Total # of neighbors = 740404
Ave neighs/atom = 147.60845
Ave special neighs/atom = 6.2631579
Neighbor list builds = 224
Dangerous builds = 0
PPPM initialization ...
  using 12-bit tables for long-range coulomb (../kspace.cpp:342)
  G vector (1/distance) = 0.22124011
  grid = 15 15 15
  stencil order = 5
  estimated absolute RMS force accuracy = 0.024272062
  estimated relative force accuracy = 7.3094594e-05
  using double precision KISS FFT
  3d grid and FFT values/proc = 2600 675
Generated 21 of 21 mixed pair_coeff terms from sixthpower/sixthpower mixing rule
Setting up Verlet run ...
  Unit style    : real
  Current step  : 10138
  Time step     : 1
Per MPI rank memory allocation (min/avg/max) = 28.21 | 28.23 | 28.26 Mbytes
   Step          Temp          PotEng         E_vdwl         E_coul         E_bond        E_angle        E_dihed        E_impro        Density         Volume    
     10138   299.73799      32163.598     -173.58474      7531.2582      2308.7704      32618.825     -3337.0492     -36.930504      0.44999999     122899.55    
     10200   300.11222      32162.645     -164.8971       7537.7586      2319.2419      32552.171     -3284.0502     -50.381064      0.45096158     122637.49    
     10300   299.85063      32210.813     -198.76613      7548.768       2300.673       32701.019     -3341.4322     -52.551299      0.45545323     121428.04    
     10400   305.6022       32219.861     -182.48537      7533.373       2323.3258      32637.81      -3293.9143     -51.58538       0.46185012     119746.2     
     10500   306.86441      32175.488     -205.04164      7538.3263      2320.3074      32609.705     -3293.5722     -49.115016      0.46823683     118112.87    
     10600   303.11408      32085.357     -228.65362      7537.998       2221.9515      32683.118     -3323.4656     -59.086777      0.47338574     116828.18    
     10700   296.16851      32130.839     -277.38684      7542.6908      2283.8741      32675.343     -3291.1795     -56.150026      0.47847814     115584.79    
     10800   298.8318       32064.154     -269.1202       7549.2523      2254.7245      32623.855     -3307.8029     -38.320944      0.48423292     114211.14    
     10900   297.96801      32044.206     -307.58267      7557.1566      2290.2035      32599.634     -3301.7334     -43.922869      0.48957521     112964.86    
     11000   300.99129      31945.408     -327.03137      7537.2018      2253.5736      32552.128     -3264.2765     -55.064887      0.49530122     111658.91    
     11100   295.59847      31939.554     -348.92472      7537.3088      2260.9187      32629.049     -3339.3131     -48.831641      0.50078466     110436.28    
     11200   299.36327      31849.117     -383.6999       7535.5788      2234.5113      32575.18      -3325.4609     -35.695816      0.50631582     109229.84    
     11300   300.23783      31866.595     -366.74434      7531.3801      2267.4995      32499.639     -3257.3735     -57.256269      0.51149159     108124.55    
     11400   304.37055      31894.804     -403.20746      7528.2441      2294.8955      32588.513     -3318.1444     -45.413182      0.51599885     107180.07    
     11500   302.21255      31943.118     -385.99933      7530.5661      2242.8983      32677.332     -3317.3486     -54.817881      0.52048097     106257.09    
     11600   294.71146      31922.002     -398.41542      7532.5122      2196.6177      32671.875     -3294.8357     -38.121474      0.52480098     105382.42    
     11700   296.58131      31834.24      -423.1717       7539.3089      2292.294       32531.359     -3303.2773     -55.445598      0.52912526     104521.18    
     11800   301.55699      31773.991     -437.51872      7527.6737      2248.0049      32517.119     -3297.3269     -38.307431      0.53391929     103582.69    
     11900   300.41005      31825.556     -472.65347      7521.8182      2290.8446      32623.551     -3342.8905     -46.546129      0.53896962     102612.08    
     12000   304.25488      31841.247     -454.53371      7524.2145      2244.0328      32618.619     -3297.3849     -43.825889      0.54413326     101638.33    
     12100   297.3992       31948.399     -492.86055      7523.3854      2358.8718      32678.495     -3319.7137     -49.122725      0.54921453     100697.98    
     12200   299.62281      31762.792     -488.99326      7536.4503      2271.6806      32542.248     -3300.8687     -45.274023      0.5545505      99729.051    
     12300   295.96308      31759.553     -531.6161       7541.1674      2226.0645      32613.713     -3289.7673     -49.516786      0.55847182     99028.802    
     12400   298.6879       31705.616     -549.84177      7543.7093      2233.5442      32611.821     -3334.7295     -47.602104      0.56177706     98446.162    
     12500   295.73102      31736.708     -542.31226      7533.4976      2251.8111      32594.762     -3294.4572     -54.385028      0.56470115     97936.396    
     12600   301.93392      31679.787     -526.99497      7546.3155      2141.3888      32618.782     -3301.1693     -46.951422      0.56890252     97213.131    
     12700   298.47934      31796.377     -519.00025      7528.2061      2311.8674      32527.122     -3234.0901     -64.77086       0.57367299     96404.74     
     12800   301.52924      31761.596     -577.08564      7539.3118      2193.03        32656.519     -3263.4999     -35.574385      0.578467       95605.791    
     12900   303.27549      31594.964     -563.4167       7534.3209      2236.4309      32563.91      -3363.9039     -61.191497      0.5834703      94785.965    
     13000   299.69855      31601.76      -559.03405      7539.4294      2167.8991      32590.485     -3339.0408     -46.960015      0.58779042     94089.31     
     13100   298.9645       31636.915     -546.6623       7538.4494      2169.8617      32599.246     -3317.194      -54.382918      0.59211563     93402.019    
     13200   300.65178      31662.022     -562.24077      7531.0534      2267.5244      32477.986     -3262.5317     -36.552707      0.59685112     92660.957    
     13300   306.17141      31665.002     -565.33593      7534.4308      2232.0191      32613.574     -3341.9319     -53.56759       0.60177824     91902.286    
     13400   305.2194       31680.647     -617.43436      7519.5257      2264.2034      32727.053     -3409.435      -50.148313      0.60588981     91278.636    
     13500   300.87382      31591.243     -616.00639      7527.6058      2183.2647      32575.581     -3268.3501     -58.149143      0.61101325     90513.251    
     13600   298.34297      31596.005     -607.7293       7514.8107      2235.3671      32564.846     -3312.5358     -44.835046      0.61678525     89666.209    
     13700   299.18124      31611.396     -624.49914      7518.6979      2188.4815      32633.011     -3290.3756     -60.080753      0.62283181     88795.714    
     13800   304.1303       31533.158     -681.33124      7529.2885      2212.2743      32638.48      -3353.9592     -59.139334      0.62825654     88029.001    
     13900   301.11313      31512.971     -681.37624      7511.9475      2233.1598      32565.926     -3310.869      -53.118136      0.63365444     87279.109    
     14000   297.06584      31473.635     -675.56649      7522.6456      2201.3776      32474.991     -3242.7825     -55.734941      0.63924164     86516.259    
     14100   295.39031      31483.254     -723.11585      7522.0502      2270.0274      32628.397     -3402.2505     -58.65273       0.64456851     85801.268    
     14200   296.20303      31575.34      -701.1407       7531.7682      2182.1329      32631.246     -3286.6224     -28.037456      0.65083721     84974.851    
     14300   301.7373       31574.73      -724.08657      7516.1811      2259.3682      32574.919     -3263.9362     -34.875697      0.65600543     84305.393    
     14400   305.40616      31453.715     -742.84554      7523.5209      2241.3787      32557.061     -3316.5624     -54.553338      0.66129499     83631.052    
     14500   300.01039      31457.742     -738.62091      7521.6387      2224.5488      32578.581     -3336.1672     -37.774081      0.66688805     82929.654    
     14600   295.72331      31501.267     -714.40514      7511.6438      2294.1836      32509.405     -3308.135      -34.533141      0.67246105     82242.377    
     14700   303.99441      31378.622     -758.5892       7505.8381      2166.5387      32546.825     -3284.8554     -39.387177      0.67819425     81547.131    
     14800   307.69329      31407.56      -753.31754      7507.282       2211.5801      32615.734     -3375.0056     -40.98759       0.68409765     80843.422    
     14900   310.12015      31407.895     -759.68414      7508.9604      2211.7884      32571.864     -3331.6155     -37.348228      0.68937615     80224.41     
     15000   303.99508      31370.624     -749.33809      7503.7712      2212.8024      32433.711     -3248.4953     -26.950089      0.69464088     79616.385    
     15100   296.71645      31398.586     -728.38719      7500.2394      2254.5365      32523.287     -3345.5284     -50.384037      0.69964132     79047.355    
     15200   297.48157      31342.214     -812.51346      7516.4214      2190.0868      32581.801     -3324.7529     -53.486032      0.70391597     78567.326    
     15300   298.32963      31334.843     -806.54141      7515.0821      2172.6897      32542.867     -3290.6902     -44.404045      0.7089488      78009.576    
     15400   301.65974      31376.601     -788.81968      7512.3585      2186.0707      32567.104     -3284.9925     -60.922287      0.7144316      77410.903    
     15500   302.45255      31435.958     -836.55358      7498.5041      2228.8992      32610.601     -3263.3        -47.929205      0.71965067     76849.502    
     15600   304.75165      31319.649     -896.54374      7503.3239      2238.9005      32614.994     -3337.6827     -51.014902      0.72539244     76241.207    
     15700   298.09367      31357.824     -807.79027      7497.4194      2221.5959      32594.943     -3351.3431     -44.978818      0.73152355     75602.208    
     15800   300.9478       31292.919     -791.11226      7485.9751      2163.4944      32587.459     -3355.0058     -43.863822      0.73693126     75047.427    
     15900   303.71044      31185.755     -889.05695      7492.4207      2205.9544      32507.603     -3327.3789     -49.795567      0.74151123     74583.895    
     16000   295.77668      31216.673     -937.84822      7504.9886      2181.2047      32574.323     -3308.6983     -44.112242      0.74672507     74063.129    
     16100   300.23163      31149.216     -930.14084      7502.9047      2174.6514      32627.933     -3417.9874     -56.018707      0.75255607     73489.269    
     16200   300.96697      31241.91      -900.22794      7511.1715      2209.4966      32531.338     -3306.5948     -50.344958      0.75909425     72856.296    
     16300   307.82826      31250.955     -962.71635      7507.8116      2207.9903      32513.347     -3225.7775     -36.653018      0.7642157      72368.044    
     16400   305.45291      31198.489     -957.78434      7503.7123      2167.1863      32583.888     -3300.9299     -46.683038      0.76940566     71879.891    
     16500   298.76594      31190.151     -950.94834      7502.3014      2115.3322      32603.777     -3269.6701     -60.709788      0.77437588     71418.541    
     16600   299.76738      31133.863     -967.80498      7508.8251      2172.3247      32541.552     -3321.0084     -49.714846      0.7788803      71005.513    
     16700   300.6319       31116.011     -993.07869      7506.1522      2129.9658      32492.758     -3223.4233     -46.461697      0.78328454     70606.265    
     16800   298.12476      31248.904     -957.42157      7497.1675      2162.5449      32639.664     -3284.8244     -55.637491      0.78733328     70243.182    
     16900   304.88165      31237.113     -974.37857      7499.8678      2226.2187      32541.955     -3246.5795     -57.431875      0.78984047     70020.21     
     17000   304.72775      31207.426     -987.49833      7518.3427      2213.6387      32526.468     -3268.4068     -42.346073      0.79198997     69830.172    
     17100   302.73502      31146.481     -992.03738      7505.7034      2171.8656      32642.237     -3367.9845     -58.662409      0.79457964     69602.583    
     17200   303.72239      31090.36      -1011.2972      7506.7674      2142.7527      32568.772     -3310.5623     -53.695575      0.79940978     69182.035    
     17300   300.33544      31164.993     -972.59577      7498.7823      2173.91        32559.72      -3284.6017     -57.464286      0.80485107     68714.321    
     17400   304.80166      31141.709     -999.08726      7492.3001      2164.9014      32531.455     -3241.5692     -48.631778      0.80933414     68333.699    
     17500   301.76683      31171.806     -1034.8332      7493.5524      2199.681       32610.426     -3286.7964     -51.174081      0.81367173     67969.42     
     17600   299.15396      31065.763     -1045.1878      7501.8647      2190.9168      32568.619     -3344.3808     -47.596292      0.81809471     67601.947    
     17700   299.64393      30999.691     -1083.754       7490.6189      2116.2578      32582.347     -3306.7322     -40.453655      0.8221089      67271.86     
     17800   296.86946      31061.32      -1089.8742      7493.0639      2205.4493      32518.74      -3274.2555     -34.969967      0.8267017      66898.127    
     17900   299.328        31130.418     -1051.2702      7501.366       2167.0094      32639.431     -3318.062      -52.136805      0.83097939     66553.751    
     18000   302.28414      31136.791     -1093.048       7506.3504      2172.9504      32650.175     -3300.8677     -41.701857      0.83395536     66316.254    
     18100   301.74688      31093.736     -1089.739       7506.6097      2151.3009      32650.997     -3326.4159     -40.910773      0.83688298     66084.263    
     18200   296.22186      31137.175     -1088.2908      7502.6078      2199.448       32579.038     -3255.6966     -43.512721      0.83990443     65846.534    
     18300   300.79985      31050.238     -1115.5607      7506.0735      2195.2878      32598.504     -3329.8508     -47.16485       0.84337712     65575.404    
     18400   295.72187      31064.483     -1140.7258      7497.5895      2175.9576      32692.68      -3345.9713     -58.050544      0.84743476     65261.419    
     18500   295.78655      30926.555     -1142.2333      7480.4985      2177.1117      32515.484     -3301.5811     -44.72535       0.85310511     64827.645    
     18600   296.11989      30943.425     -1105.9498      7491.2827      2129.9613      32541.158     -3303.1617     -51.172317      0.85828347     64436.514    
     18700   294.42023      31039.289     -1124.8972      7490.8079      2149.39        32566.518     -3238.715      -45.352393      0.86150598     64195.486    
     18800   303.66756      30962.565     -1120.1127      7488.6411      2118.7451      32644.471     -3357.1298     -53.753223      0.86275931     64102.23     
     18900   297.95602      31087.582     -1136.967       7498.8756      2190.705       32646.971     -3298.7448     -52.46906       0.86380382     64024.717    
     19000   301.45249      31072.151     -1144.6256      7506.4806      2202.249       32545.284     -3248.0087     -29.633085      0.864029       64008.032    
     19100   305.10152      31012.858     -1188.3502      7497.6043      2232.5818      32603.572     -3325.5599     -49.327876      0.86519396     63921.846    
     19200   298.59383      31016.526     -1161.8473      7481.587       2138.6838      32671.208     -3317.7847     -37.361053      0.86969217     63591.23     
     19300   303.45114      30858.116     -1169.0445      7473.7002      2171.9495      32498.626     -3306.2584     -51.641047      0.87512417     63196.512    
     19400   293.24283      31000.434     -1153.8177      7491.0591      2178.3875      32573.121     -3276.1397     -50.773611      0.88131385     62752.668    
     19500   302.17155      30943.671     -1206.8036      7483.5889      2172.9882      32585.659     -3287.3755     -43.872631      0.8863208      62398.169    
     19600   303.87804      31013.504     -1230.9928      7476.02        2230.4096      32624.213     -3285.6997     -42.901937      0.89037698     62113.91     
     19700   297.87353      31023.762     -1207.3467      7486.2244      2193.7669      32607.704     -3246.6448     -52.297322      0.89480101     61806.809    
     19800   301.09725      30910.102     -1196.8483      7495.5592      2149.6054      32536.517     -3271.7893     -41.283487      0.89836559     61561.569    
     19900   296.86159      30980.702     -1194.6564      7487.8708      2181.7124      32655.379     -3337.4871     -49.926533      0.90150807     61346.978    
     20000   300.20116      30952.089     -1230.8134      7484.5174      2137.237       32636.714     -3276.0087     -37.293813      0.90377839     61192.872    
     20100   300.36034      30980.139     -1183.4617      7491.7906      2160.4399      32560.847     -3244.4206     -44.933436      0.90636966     61017.925    
     20200   305.13704      30902.53      -1284.8805      7482.1234      2153.76        32607.983     -3265.8657     -30.823424      0.90734379     60952.415    
     20300   302.38134      30818.4       -1237.8446      7476.1702      2118.8295      32595.882     -3325.6753     -48.53028       0.90955257     60804.397    
     20400   297.63637      30828.955     -1215.3962      7486.1929      2198.1704      32496.628     -3333.9178     -43.876975      0.9129906      60575.427    
     20500   303.41378      30760.342     -1283.4384      7472.2302      2142.9162      32504.654     -3274.8839     -44.581202      0.91533421     60420.331    
     20600   303.65488      30846.506     -1232.3599      7482.4995      2182.9646      32486.645     -3281.5421     -32.700942      0.91749179     60278.246    
     20700   303.61059      30943.251     -1243.7806      7488.536       2252.1609      32611.829     -3358.0046     -50.534914      0.91790384     60251.187    
     20800   297.25421      31015.333     -1233.2699      7492.2269      2278.7225      32576.482     -3305.2116     -37.410215      0.91745833     60280.444    
     20900   300.62157      30937.324     -1193.2643      7476.7057      2186.9277      32601.461     -3329.581      -46.725694      0.91719561     60297.711    
     21000   297.86604      30928.965     -1240.9479      7471.9269      2185.8208      32605.31      -3294.4064     -40.964312      0.91845096     60215.295    
     21100   297.99609      30907.911     -1238.2706      7468.6579      2105.0813      32640.396     -3273.8808     -35.572203      0.92107067     60044.031    
     21200   301.57399      30938.76      -1210.4939      7468.4921      2255.4175      32591.079     -3361.379      -45.426005      0.92418951     59841.401    
     21300   307.05033      30977.596     -1274.2201      7469.8134      2239.7563      32610.399     -3260.8455     -49.276752      0.92711772     59652.398    
     21400   305.42687      30898.839     -1274.2786      7464.8666      2214.4294      32607.182     -3311.6518     -44.06441       0.92922032     59517.419    
     21500   301.32916      30875.162     -1251.2416      7474.9394      2091.2214      32630.457     -3262.0098     -50.174559      0.93133043     59382.571    
     21600   298.58866      30879.811     -1334.2944      7477.3015      2230.4811      32647.509     -3348.1726     -37.055689      0.93140499     59377.817    
     21700   298.87295      30835.497     -1291.2347      7485.5188      2224.4362      32544.613     -3336.092      -34.476191      0.93201236     59339.122    
     21800   294.89455      30842.04      -1303.8066      7480.4145      2095.3391      32595.04      -3230.0628     -38.504491      0.93198446     59340.899    
     21900   294.33641      30790.712     -1256.8136      7469.7281      2162.6507      32561.139     -3335.909      -53.200074      0.93284109     59286.406    
     22000   300.96231      30786.196     -1300.0085      7486.6715      2109.7292      32608.077     -3315.3187     -44.006381      0.9352797      59131.825    
     22100   301.06313      30860.11      -1300.2034      7477.8611      2203.5635      32537.052     -3250.2928     -47.367779      0.93938626     58873.328    
     22200   300.44409      30835.446     -1328.4119      7470.9849      2251.6721      32558.163     -3300.6626     -55.301018      0.94433536     58564.783    
     22300   299.32969      30763.234     -1313.7029      7467.4981      2136.2411      32612.986     -3330.6781     -48.744747      0.94773096     58354.953    
     22400   299.05392      30701.777     -1338.8976      7472.556       2168.4792      32550.326     -3336.4355     -54.611282      0.95007277     58211.115    
     22500   301.81723      30668.389     -1371.7113      7476.3766      2121.802       32574.014     -3332.4205     -40.283131      0.95170888     58111.043    
     22600   299.40507      30732.035     -1391.0123      7480.5615      2182.5548      32566.654     -3319.2162     -30.980454      0.95356335     57998.03     
     22700   296.16263      30821.04      -1344.5446      7465.0901      2216.1284      32607.856     -3324.4256     -39.521068      0.9558839      57857.231    
     22800   302.157        30850.929     -1352.8235      7472.6704      2212.6423      32658.415     -3325.735      -51.954461      0.95812007     57722.197    
     22900   308.19554      30820.74      -1370.1206      7477.6974      2147.953       32642.171     -3274.4109     -42.04135       0.9599916      57609.666    
     23000   302.01028      30841.969     -1305.2848      7468.8761      2220.2026      32550.201     -3275.7869     -54.054557      0.96165793     57509.842    
     23100   304.29615      30734.2       -1364.5251      7481.6645      2161.5306      32555.14      -3308.7832     -31.32791       0.96160142     57513.222    
     23200   299.93164      30740.971     -1381.191       7468.8432      2207.8671      32581.437     -3323.765      -52.918315      0.9612209      57535.989    
     23300   295.85625      30751.116     -1404.1855      7477.7452      2216.1339      32614.455     -3356.0368     -37.92821       0.96231962     57470.298    
     23400   297.41016      30682.919     -1431.9267      7472.4103      2211.6126      32486.494     -3259.8238     -35.469184      0.9664309      57225.815    
     23500   295.86446      30649.128     -1390.3645      7465.3818      2119.0711      32600.602     -3361.5689     -25.541034      0.97163672     56919.211    
     23600   290.58382      30742.63      -1386.6356      7484.9512      2190.4226      32702.696     -3440.1016     -49.320536      0.97535814     56702.039    
     23700   297.70873      30775.606     -1397.686       7489.0487      2204.441       32606.785     -3331.2238     -36.907817      0.97641386     56640.732    
     23800   303.53862      30724.058     -1421.8653      7492.8628      2205.0434      32522.553     -3274.2838     -41.8063        0.97623638     56651.029    
     23900   299.07783      30762.82      -1378.7209      7488.2501      2157.0527      32620.603     -3324.0427     -42.314707      0.97659423     56630.27     
     24000   299.57734      30710.857     -1446.6697      7484.8111      2189.7514      32617.111     -3332.9863     -43.8641        0.97653643     56633.622    
     24100   295.63523      30698.06      -1354.599       7475.7228      2166.0582      32593.144     -3374.3282     -51.8876        0.97823125     56535.503    
     24200   299.70425      30634.919     -1424.9235      7473.3611      2108.6151      32580.767     -3303.732      -41.163723      0.98088576     56382.504    
     24300   297.56377      30782.963     -1371.5835      7471.8347      2163.4286      32687.221     -3363.9262     -43.877629      0.98368043     56222.319    
     24400   306.07309      30728.461     -1367.8513      7477.3774      2131.4264      32626.277     -3341.6429     -37.600384      0.98460039     56169.788    














uuuuuuuuuuuuuuuuuuu:q
     24500   303.7457       30716.755     -1366.4447      7473.1082      2149.2895      32607.983     -3343.891      -44.286568      0.98437069     56182.895    
     24600   301.0106       30663.528     -1410.3355      7461.7174      2208.6478      32551.289     -3335.0488     -54.870106      0.98463945     56167.56     
     24700   298.61884      30678.823     -1459.1068      7476.8751      2172.0796      32598.275     -3303.2829     -46.892731      0.98640455     56067.052    
     24800   303.73928      30624.262     -1426.3891      7473.4901      2151.6908      32559.731     -3343.3327     -30.40028       0.98910085     55914.213    
     24900   300.52865      30695.081     -1472.2492      7457.8936      2191.1068      32615.769     -3295.7821     -39.548083      0.99116073     55798.009    
     25000   300.27751      30653.445     -1471.9673      7457.6672      2157.2229      32630.888     -3313.3664     -45.91258       0.9939731      55640.133    
     25100   295.76494      30607.265     -1503.9115      7470.3663      2173.1102      32628.422     -3352.4982     -48.046131      0.99691695     55475.83     
     25200   295.6574       30630.066     -1457.3641      7467.0049      2110.5894      32640.683     -3315.7143     -53.295511      0.99975261     55318.481    
