LAMMPS (22 Dec 2022)
WARNING: Using I/O redirection is unreliable with parallel runs. Better to use the -in switch to read input files. (../lammps.cpp:531)
# PREREQUISITES:
#
#     You must use moltemplate.sh to create 3 files:
#        system.data  system.in.init  system.in.settings
#     (Follow the instructions in README_setup.sh,
#      or run the file as a script using ./README_setup.sh)

# ------------------------------- Initialization Section --------------------

units real
atom_style full
pair_style lj/class2/coul/long 10.0 10.0
#bond_style class2
bond_style hybrid class2 morse
angle_style class2
dihedral_style class2
improper_style class2
kspace_style pppm/cg 0.001

#special_bonds   lj/coul 1 1 1

# ------------------------------- Atom Definition Section -------------------

read_data       "reacted_lmp.data"
Reading data file ...
  orthogonal box = (5.9030791 5.9030791 5.9030791) to (43.568975 43.568975 43.568975)
  1 by 2 by 3 MPI processor grid
  reading atoms ...
  4952 atoms
  reading velocities ...
  4952 velocities
  scanning bonds ...
  4 = max bonds/atom
  scanning angles ...
  6 = max angles/atom
  scanning dihedrals ...
  17 = max dihedrals/atom
  scanning impropers ...
  4 = max impropers/atom
  reading bonds ...
  5336 bonds
  reading angles ...
  10920 angles
  reading dihedrals ...
  17852 dihedrals
  reading impropers ...
  6890 impropers
Finding 1-2 1-3 1-4 neighbors ...
  special bond factors lj:    0        0        0       
  special bond factors coul:  0        0        0       
     4 = max # of 1-2 neighbors
     9 = max # of 1-3 neighbors
    18 = max # of 1-4 neighbors
    20 = max # of special neighbors
  special bonds CPU = 0.001 seconds
  read_data CPU = 0.089 seconds

include calc.pram

# Masses

mass		 1    12.01115  # c
mass		 2    12.01115  # c1
mass		 3    12.01115  # c_1
mass		 4     1.00797  # h
mass		 5     1.00797  # hc
mass		 6    15.99940  # o3e
mass		 7    15.99940  # o_1
mass		 8    15.99940  # o_2
mass		 9    15.99940  # oc
mass		10    15.99940  # oh

# Potentials

pair_coeff	 1  1    0.05400    4.01000  # c,c
pair_coeff	 2  2    0.05400    4.01000  # c1,c1
pair_coeff	 3  3    0.12000    3.81000  # c_1,c_1
pair_coeff	 4  4    0.02000    2.99500  # h,h
pair_coeff	 5  5    0.02000    2.99500  # hc,hc
pair_coeff	 6  6    0.24000    3.53500  # o3e,o3e
pair_coeff	 7  7    0.26700    3.30000  # o_1,o_1
pair_coeff	 8  8    0.24000    3.42000  # o_2,o_2
pair_coeff	 9  9    0.24000    3.53500  # oc,oc
pair_coeff	10 10    0.24000    3.53500  # oh,oh

# Bond Coeffs

bond_coeff	 1  morse  85 2.2 1.53000    # c,c
bond_coeff	 2  morse  85 2.2 1.53000    # c,c1
bond_coeff	 3  class2  1.10100  345.00000 -691.89000  844.60000  # c,hc
bond_coeff	 4  morse  85 2.2 1.43000    # c,o_2
bond_coeff	 5  morse  85 2.2 1.53000    # c1,c1
bond_coeff	 6  morse  85 2.2 1.52020    # c1,c_1
bond_coeff	 7  class2  1.10100  345.00000 -691.89000  844.60000  # c1,hc
bond_coeff	 8  morse  85 2.2 1.42000    # c1,o3e
bond_coeff	 9  morse  85 2.2 1.42000    # c1,oc
bond_coeff	10  morse  85 2.2 1.42000    # c1,oh
bond_coeff	11  class2  1.20200  851.14030 -1918.48820 2160.76590  # c_1,o_1
bond_coeff	12  class2  1.36830  367.14810 -794.79080 1055.23190  # c_1,o_2
bond_coeff	13  class2 0.96000  493.84800    0.00000    0.00000  # h,oh

# Angle Coeffs

angle_coeff	 1  112.67000   39.51600   -7.44300   -9.55830  # c,c,c
angle_coeff	 2  112.67000   39.51600   -7.44300   -9.55830  # c,c,c1
angle_coeff	 3  110.77000   41.45300  -10.60400    5.12900  # c,c,hc
angle_coeff	 4  112.67000   39.51600   -7.44300   -9.55830  # c,c1,c
angle_coeff	 5  112.67000   39.51600   -7.44300   -9.55830  # c,c1,c1
angle_coeff	 6  108.52950   51.97470   -9.48510  -10.99850  # c,c1,c_1
angle_coeff	 7  110.77000   41.45300  -10.60400    5.12900  # c,c1,hc
angle_coeff	 8  111.27000   54.53810   -8.36420  -13.08380  # c,c1,o3e
angle_coeff	 9  111.27000   54.53810   -8.36420  -13.08380  # c,c1,oc
angle_coeff	10  111.27000   54.53810   -8.36420  -13.08380  # c,c1,oh
angle_coeff	11  113.28800   61.28680  -28.97860    7.99290  # c,o_2,c_1
angle_coeff	12  112.67000   39.51600   -7.44300   -9.55830  # c1,c,c1
angle_coeff	13  110.77000   41.45300  -10.60400    5.12900  # c1,c,hc
angle_coeff	14  107.41000   63.39070  -13.45130    1.66500  # c1,c,o_2
angle_coeff	15  110.77000   41.45300  -10.60400    5.12900  # c1,c1,hc
angle_coeff	16  111.27000   54.53810   -8.36420  -13.08380  # c1,c1,o3e
angle_coeff	17  111.27000   54.53810   -8.36420  -13.08380  # c1,c1,oc
angle_coeff	18  111.27000   54.53810   -8.36420  -13.08380  # c1,c1,oh
angle_coeff	19  123.14510   55.54310  -17.21230    0.13480  # c1,c_1,o_1
angle_coeff	20  100.31820   38.86310   -3.83230   -7.98020  # c1,c_1,o_2
angle_coeff	21  104.50000   35.74540  -10.00670   -6.27290  # c1,o3e,c1
angle_coeff	22  104.50000   35.74540  -10.00670   -6.27290  # c1,oc,c1
angle_coeff	23  109.00000   58.50000    0.00000    0.00000  # c1,oh,h
angle_coeff	24  107.73360   40.60990  -28.81210    0.00000  # c_1,c1,hc
angle_coeff	25  107.66000   39.64100  -12.92100   -2.43180  # hc,c,hc
angle_coeff	26  107.68800   65.48010  -10.34980    5.88660  # hc,c,o_2
angle_coeff	27  108.72800   58.54460  -10.80880  -12.40060  # hc,c1,o3e
angle_coeff	28  108.72800   58.54460  -10.80880  -12.40060  # hc,c1,oc
angle_coeff	29  108.72800   58.54460  -10.80880  -12.40060  # hc,c1,oh
angle_coeff	30  120.79700   95.34460  -32.28690    6.37780  # o_1,c_1,o_2

# BondBond Coeffs

angle_coeff	 1 bb    0.00000    1.53000    1.53000  # c,c,c
angle_coeff	 2 bb    0.00000    1.53000    1.53000  # c,c,c1
angle_coeff	 3 bb    3.38720    1.53000    1.10100  # c,c,hc
angle_coeff	 4 bb    0.00000    1.53000    1.53000  # c,c1,c
angle_coeff	 5 bb    0.00000    1.53000    1.53000  # c,c1,c1
angle_coeff	 6 bb    5.41990    1.53000    1.52020  # c,c1,c_1
angle_coeff	 7 bb    3.38720    1.53000    1.10100  # c,c1,hc
angle_coeff	 8 bb   11.43180    1.53000    1.42000  # c,c1,o3e
angle_coeff	 9 bb   11.43180    1.53000    1.42000  # c,c1,oc
angle_coeff	10 bb   11.43180    1.53000    1.42000  # c,c1,oh
angle_coeff	11 bb   45.45030    1.43000    1.36830  # c,o_2,c_1
angle_coeff	12 bb    0.00000    1.53000    1.53000  # c1,c,c1
angle_coeff	13 bb    3.38720    1.53000    1.10100  # c1,c,hc
angle_coeff	14 bb   23.26470    1.53000    1.43000  # c1,c,o_2
angle_coeff	15 bb    3.38720    1.53000    1.10100  # c1,c1,hc
angle_coeff	16 bb   11.43180    1.53000    1.42000  # c1,c1,o3e
angle_coeff	17 bb   11.43180    1.53000    1.42000  # c1,c1,oc
angle_coeff	18 bb   11.43180    1.53000    1.42000  # c1,c1,oh
angle_coeff	19 bb   46.06850    1.52020    1.20200  # c1,c_1,o_1
angle_coeff	20 bb   19.10690    1.52020    1.36830  # c1,c_1,o_2
angle_coeff	21 bb   -7.11310    1.42000    1.42000  # c1,o3e,c1
angle_coeff	22 bb   -7.11310    1.42000    1.42000  # c1,oc,c1
angle_coeff	23 bb    0.00000    1.42000    0.96000  # c1,oh,h
angle_coeff	24 bb    0.71150    1.52020    1.10100  # c_1,c1,hc
angle_coeff	25 bb    5.33160    1.10100    1.10100  # hc,c,hc
angle_coeff	26 bb    5.64540    1.10100    1.43000  # hc,c,o_2
angle_coeff	27 bb   23.19790    1.10100    1.42000  # hc,c1,o3e
angle_coeff	28 bb   23.19790    1.10100    1.42000  # hc,c1,oc
angle_coeff	29 bb   23.19790    1.10100    1.42000  # hc,c1,oh
angle_coeff	30 bb  121.48800    1.20200    1.36830  # o_1,c_1,o_2

# BondAngle Coeffs

angle_coeff	 1 ba    8.01600    8.01600    1.53000    1.53000  # c,c,c
angle_coeff	 2 ba    8.01600    8.01600    1.53000    1.53000  # c,c,c1
angle_coeff	 3 ba   11.42100   20.75400    1.53000    1.10100  # c,c,hc
angle_coeff	 4 ba    8.01600    8.01600    1.53000    1.53000  # c,c1,c
angle_coeff	 5 ba    8.01600    8.01600    1.53000    1.53000  # c,c1,c1
angle_coeff	 6 ba   15.87580   18.16780    1.53000    1.52020  # c,c1,c_1
angle_coeff	 7 ba   11.42100   20.75400    1.53000    1.10100  # c,c1,hc
angle_coeff	 8 ba    2.68680   20.40330    1.53000    1.42000  # c,c1,o3e
angle_coeff	 9 ba    2.68680   20.40330    1.53000    1.42000  # c,c1,oc
angle_coeff	10 ba    2.68680   20.40330    1.53000    1.42000  # c,c1,oh
angle_coeff	11 ba   46.46080   41.91160    1.43000    1.36830  # c,o_2,c_1
angle_coeff	12 ba    8.01600    8.01600    1.53000    1.53000  # c1,c,c1
angle_coeff	13 ba   20.75400   11.42100    1.53000    1.10100  # c1,c,hc
angle_coeff	14 ba   23.39200   47.94870    1.53000    1.43000  # c1,c,o_2
angle_coeff	15 ba   20.75400   11.42100    1.53000    1.10100  # c1,c1,hc
angle_coeff	16 ba    2.68680   20.40330    1.53000    1.42000  # c1,c1,o3e
angle_coeff	17 ba    2.68680   20.40330    1.53000    1.42000  # c1,c1,oc
angle_coeff	18 ba    2.68680   20.40330    1.53000    1.42000  # c1,c1,oh
angle_coeff	19 ba   37.12980   34.99820    1.52020    1.20200  # c1,c_1,o_1
angle_coeff	20 ba    1.34350    4.69780    1.52020    1.36830  # c1,c_1,o_2
angle_coeff	21 ba   -2.81120   -2.81120    1.42000    1.42000  # c1,o3e,c1
angle_coeff	22 ba   -2.81120   -2.81120    1.42000    1.42000  # c1,oc,c1
angle_coeff	23 ba    0.00000    0.00000    1.42000    0.96000  # c1,oh,h
angle_coeff	24 ba   12.46320    9.17650    1.52020    1.10100  # c_1,c1,hc
angle_coeff	25 ba   18.10300   18.10300    1.10100    1.10100  # hc,c,hc
angle_coeff	26 ba    8.68640   57.49750    1.10100    1.43000  # hc,c,o_2
angle_coeff	27 ba    4.61890   55.32700    1.10100    1.42000  # hc,c1,o3e
angle_coeff	28 ba    4.61890   55.32700    1.10100    1.42000  # hc,c1,oc
angle_coeff	29 ba    4.61890   55.32700    1.10100    1.42000  # hc,c1,oh
angle_coeff	30 ba   76.26140   71.87610    1.20200    1.36830  # o_1,c_1,o_2

# Dihedral Coeffs

dihedral_coeff	 1    0.00000    0.00000    0.05140    0.00000   -0.14300    0.00000  # c,c,c,c1
dihedral_coeff	 2    0.00000    0.00000    0.03160    0.00000   -0.16810    0.00000  # c,c,c,hc
dihedral_coeff	 3    0.00000    0.00000    0.05140    0.00000   -0.14300    0.00000  # c,c,c1,c
dihedral_coeff	 4    0.00000    0.00000    0.05140    0.00000   -0.14300    0.00000  # c,c,c1,c1
dihedral_coeff	 5    0.09720    0.00000    0.07220    0.00000   -0.25810    0.00000  # c,c,c1,c_1
dihedral_coeff	 6    0.00000    0.00000    0.03160    0.00000   -0.16810    0.00000  # c,c,c1,hc
dihedral_coeff	 7    0.71370    0.00000    0.26600    0.00000   -0.25450    0.00000  # c,c,c1,o3e
dihedral_coeff	 8    0.71370    0.00000    0.26600    0.00000   -0.25450    0.00000  # c,c,c1,oc
dihedral_coeff	 9    0.00000    0.00000    0.05140    0.00000   -0.14300    0.00000  # c,c1,c,c1
dihedral_coeff	10    0.00000    0.00000    0.03160    0.00000   -0.16810    0.00000  # c,c1,c,hc
dihedral_coeff	11    0.00000    0.00000    0.00000    0.00000   -0.25000    0.00000  # c,c1,c,o_2
dihedral_coeff	12    0.00000    0.00000    0.05140    0.00000   -0.14300    0.00000  # c,c1,c1,c
dihedral_coeff	13    0.00000    0.00000    0.03160    0.00000   -0.16810    0.00000  # c,c1,c1,hc
dihedral_coeff	14    0.71370    0.00000    0.26600    0.00000   -0.25450    0.00000  # c,c1,c1,o3e
dihedral_coeff	15    0.71370    0.00000    0.26600    0.00000   -0.25450    0.00000  # c,c1,c1,oc
dihedral_coeff	16    0.71370    0.00000    0.26600    0.00000   -0.25450    0.00000  # c,c1,c1,oh
dihedral_coeff	17    0.04420    0.00000    0.02920    0.00000    0.05620    0.00000  # c,c1,c_1,o_1
dihedral_coeff	18    1.83410    0.00000    2.06030    0.00000   -0.01950    0.00000  # c,c1,c_1,o_2
dihedral_coeff	19   -0.52030    0.00000   -0.30280    0.00000   -0.34500    0.00000  # c,c1,o3e,c1
dihedral_coeff	20   -0.52030    0.00000   -0.30280    0.00000   -0.34500    0.00000  # c,c1,oc,c1
dihedral_coeff	21    0.00000    0.00000    0.00000    0.00000    0.13000  180.00000  # c,c1,oh,h
dihedral_coeff	22   -2.55940    0.00000    2.20130    0.00000    0.03250    0.00000  # c,o_2,c_1,c1
dihedral_coeff	23    0.00000    0.00000    2.20890    0.00000    0.00000    0.00000  # c,o_2,c_1,o_1
dihedral_coeff	24    0.00000    0.00000    0.05140    0.00000   -0.14300    0.00000  # c1,c,c,c1
dihedral_coeff	25    0.00000    0.00000    0.03160    0.00000   -0.16810    0.00000  # c1,c,c,hc
dihedral_coeff	26    0.00000    0.00000    0.05140    0.00000   -0.14300    0.00000  # c1,c,c1,c1
dihedral_coeff	27    0.09720    0.00000    0.07220    0.00000   -0.25810    0.00000  # c1,c,c1,c_1
dihedral_coeff	28    0.00000    0.00000    0.03160    0.00000   -0.16810    0.00000  # c1,c,c1,hc
dihedral_coeff	29    0.71370    0.00000    0.26600    0.00000   -0.25450    0.00000  # c1,c,c1,o3e
dihedral_coeff	30    0.71370    0.00000    0.26600    0.00000   -0.25450    0.00000  # c1,c,c1,oc
dihedral_coeff	31    0.71370    0.00000    0.26600    0.00000   -0.25450    0.00000  # c1,c,c1,oh
dihedral_coeff	32    0.00000    0.00000    0.00000    0.00000   -0.19320    0.00000  # c1,c,o_2,c_1
dihedral_coeff	33    0.00000    0.00000    0.03160    0.00000   -0.16810    0.00000  # c1,c1,c,hc
dihedral_coeff	34   -0.52030    0.00000   -0.30280    0.00000   -0.34500    0.00000  # c1,c1,oc,c1
dihedral_coeff	35    0.00000    0.00000    0.00000    0.00000    0.13000  180.00000  # c1,c1,oh,h
dihedral_coeff	36    0.53020    0.00000    0.00000    0.00000   -0.39660    0.00000  # c1,o3e,c1,hc
dihedral_coeff	37    0.53020    0.00000    0.00000    0.00000   -0.39660    0.00000  # c1,oc,c1,hc
dihedral_coeff	38   -0.02280    0.00000    0.02800    0.00000   -0.18630    0.00000  # c_1,c1,c,hc
dihedral_coeff	39    0.00000    0.00000    0.00000    0.00000   -0.19320    0.00000  # c_1,o_2,c,hc
dihedral_coeff	40    0.00000    0.00000    0.00000    0.00000    0.13000  180.00000  # h,oh,c1,hc
dihedral_coeff	41   -0.14320    0.00000    0.06170    0.00000   -0.10830    0.00000  # hc,c,c,hc
dihedral_coeff	42   -0.14320    0.00000    0.06170    0.00000   -0.10830    0.00000  # hc,c,c1,hc
dihedral_coeff	43   -0.14350    0.00000    0.25300    0.00000   -0.09050    0.00000  # hc,c,c1,o3e
dihedral_coeff	44   -0.14350    0.00000    0.25300    0.00000   -0.09050    0.00000  # hc,c,c1,oc
dihedral_coeff	45   -0.14350    0.00000    0.25300    0.00000   -0.09050    0.00000  # hc,c,c1,oh
dihedral_coeff	46    0.00000    0.00000    0.00000    0.00000   -0.25000    0.00000  # hc,c1,c,o_2
dihedral_coeff	47   -0.14320    0.00000    0.06170    0.00000   -0.10830    0.00000  # hc,c1,c1,hc
dihedral_coeff	48   -0.14350    0.00000    0.25300    0.00000   -0.09050    0.00000  # hc,c1,c1,o3e
dihedral_coeff	49   -0.14350    0.00000    0.25300    0.00000   -0.09050    0.00000  # hc,c1,c1,oc
dihedral_coeff	50   -0.14350    0.00000    0.25300    0.00000   -0.09050    0.00000  # hc,c1,c1,oh
dihedral_coeff	51   -0.18040    0.00000    0.00120    0.00000    0.03710    0.00000  # hc,c1,c_1,o_1
dihedral_coeff	52   -0.63590    0.00000    1.48070    0.00000   -0.04380    0.00000  # hc,c1,c_1,o_2
dihedral_coeff	53   -0.18200    0.00000   -0.10840    0.00000   -0.70470    0.00000  # oc,c1,c1,oc
dihedral_coeff	54   -0.18200    0.00000   -0.10840    0.00000   -0.70470    0.00000  # oc,c1,c1,oh

# MiddleBondTorsion Coeffs

dihedral_coeff	 1 mbt  -17.78700   -7.18770    0.00000    1.53000  # c,c,c,c1
dihedral_coeff	 2 mbt  -14.87900   -3.65810   -0.31380    1.53000  # c,c,c,hc
dihedral_coeff	 3 mbt  -17.78700   -7.18770    0.00000    1.53000  # c,c,c1,c
dihedral_coeff	 4 mbt  -17.78700   -7.18770    0.00000    1.53000  # c,c,c1,c1
dihedral_coeff	 5 mbt   -1.59450    0.22670   -0.69110    1.53000  # c,c,c1,c_1
dihedral_coeff	 6 mbt  -14.87900   -3.65810   -0.31380    1.53000  # c,c,c1,hc
dihedral_coeff	 7 mbt  -21.88420   -7.67640   -0.68680    1.53000  # c,c,c1,o3e
dihedral_coeff	 8 mbt  -21.88420   -7.67640   -0.68680    1.53000  # c,c,c1,oc
dihedral_coeff	 9 mbt  -17.78700   -7.18770    0.00000    1.53000  # c,c1,c,c1
dihedral_coeff	10 mbt  -14.87900   -3.65810   -0.31380    1.53000  # c,c1,c,hc
dihedral_coeff	11 mbt    0.00000    0.00000    0.00000    1.53000  # c,c1,c,o_2
dihedral_coeff	12 mbt  -17.78700   -7.18770    0.00000    1.53000  # c,c1,c1,c
dihedral_coeff	13 mbt  -14.87900   -3.65810   -0.31380    1.53000  # c,c1,c1,hc
dihedral_coeff	14 mbt  -21.88420   -7.67640   -0.68680    1.53000  # c,c1,c1,o3e
dihedral_coeff	15 mbt  -21.88420   -7.67640   -0.68680    1.53000  # c,c1,c1,oc
dihedral_coeff	16 mbt  -21.88420   -7.67640   -0.68680    1.53000  # c,c1,c1,oh
dihedral_coeff	17 mbt    0.33880   -0.10960    0.12190    1.52020  # c,c1,c_1,o_1
dihedral_coeff	18 mbt  -17.32800   -5.79000   -3.21140    1.52020  # c,c1,c_1,o_2
dihedral_coeff	19 mbt   -5.92880   -2.70070   -0.31750    1.42000  # c,c1,o3e,c1
dihedral_coeff	20 mbt   -5.92880   -2.70070   -0.31750    1.42000  # c,c1,oc,c1
dihedral_coeff	21 mbt    0.00000    0.00000    0.00000    1.42000  # c,c1,oh,h
dihedral_coeff	22 mbt    1.34450    3.55150   -4.92020    1.36830  # c,o_2,c_1,c1
dihedral_coeff	23 mbt    4.26000    0.00000    0.00000    1.36830  # c,o_2,c_1,o_1
dihedral_coeff	24 mbt  -17.78700   -7.18770    0.00000    1.53000  # c1,c,c,c1
dihedral_coeff	25 mbt  -14.87900   -3.65810   -0.31380    1.53000  # c1,c,c,hc
dihedral_coeff	26 mbt  -17.78700   -7.18770    0.00000    1.53000  # c1,c,c1,c1
dihedral_coeff	27 mbt   -1.59450    0.22670   -0.69110    1.53000  # c1,c,c1,c_1
dihedral_coeff	28 mbt  -14.87900   -3.65810   -0.31380    1.53000  # c1,c,c1,hc
dihedral_coeff	29 mbt  -21.88420   -7.67640   -0.68680    1.53000  # c1,c,c1,o3e
dihedral_coeff	30 mbt  -21.88420   -7.67640   -0.68680    1.53000  # c1,c,c1,oc
dihedral_coeff	31 mbt  -21.88420   -7.67640   -0.68680    1.53000  # c1,c,c1,oh
dihedral_coeff	32 mbt   -5.43500    0.00000    0.00000    1.43000  # c1,c,o_2,c_1
dihedral_coeff	33 mbt  -14.87900   -3.65810   -0.31380    1.53000  # c1,c1,c,hc
dihedral_coeff	34 mbt   -5.92880   -2.70070   -0.31750    1.42000  # c1,c1,oc,c1
dihedral_coeff	35 mbt    0.00000    0.00000    0.00000    1.42000  # c1,c1,oh,h
dihedral_coeff	36 mbt   -6.80070   -4.65460   -1.41010    1.42000  # c1,o3e,c1,hc
dihedral_coeff	37 mbt   -6.80070   -4.65460   -1.41010    1.42000  # c1,oc,c1,hc
dihedral_coeff	38 mbt   -3.50390    1.24580   -0.76100    1.53000  # c_1,c1,c,hc
dihedral_coeff	39 mbt    0.00000    0.00000    0.00000    1.43000  # c_1,o_2,c,hc
dihedral_coeff	40 mbt    0.00000    0.00000    0.00000    1.42000  # h,oh,c1,hc
dihedral_coeff	41 mbt  -14.26100   -0.53220   -0.48640    1.53000  # hc,c,c,hc
dihedral_coeff	42 mbt  -14.26100   -0.53220   -0.48640    1.53000  # hc,c,c1,hc
dihedral_coeff	43 mbt  -16.79750   -1.22960   -0.27500    1.53000  # hc,c,c1,o3e
dihedral_coeff	44 mbt  -16.79750   -1.22960   -0.27500    1.53000  # hc,c,c1,oc
dihedral_coeff	45 mbt  -16.79750   -1.22960   -0.27500    1.53000  # hc,c,c1,oh
dihedral_coeff	46 mbt    0.00000    0.00000    0.00000    1.53000  # hc,c1,c,o_2
dihedral_coeff	47 mbt  -14.26100   -0.53220   -0.48640    1.53000  # hc,c1,c1,hc
dihedral_coeff	48 mbt  -16.79750   -1.22960   -0.27500    1.53000  # hc,c1,c1,o3e
dihedral_coeff	49 mbt  -16.79750   -1.22960   -0.27500    1.53000  # hc,c1,c1,oc
dihedral_coeff	50 mbt  -16.79750   -1.22960   -0.27500    1.53000  # hc,c1,c1,oh
dihedral_coeff	51 mbt    0.23590    0.91390    0.95940    1.52020  # hc,c1,c_1,o_1
dihedral_coeff	52 mbt  -13.76860   -2.59590    1.19340    1.52020  # hc,c1,c_1,o_2
dihedral_coeff	53 mbt  -17.25850   -3.61570   -0.83640    1.53000  # oc,c1,c1,oc
dihedral_coeff	54 mbt  -17.25850   -3.61570   -0.83640    1.53000  # oc,c1,c1,oh

# EndBondTorsion Coeffs

dihedral_coeff	 1 ebt   -0.07320    0.00000    0.00000   -0.07320    0.00000    0.00000    1.53000    1.53000  # c,c,c,c1
dihedral_coeff	 2 ebt    0.08140    0.05910    0.22190    0.24860    0.24220   -0.09250    1.53000    1.10100  # c,c,c,hc
dihedral_coeff	 3 ebt   -0.07320    0.00000    0.00000   -0.07320    0.00000    0.00000    1.53000    1.53000  # c,c,c1,c
dihedral_coeff	 4 ebt   -0.07320    0.00000    0.00000   -0.07320    0.00000    0.00000    1.53000    1.53000  # c,c,c1,c1
dihedral_coeff	 5 ebt    0.00550    0.00600   -0.00090    0.00620   -0.00020    0.00360    1.53000    1.52020  # c,c,c1,c_1
dihedral_coeff	 6 ebt    0.08140    0.05910    0.22190    0.24860    0.24220   -0.09250    1.53000    1.10100  # c,c,c1,hc
dihedral_coeff	 7 ebt   -0.31900    0.44110   -0.71740    1.15380    0.84090   -0.91380    1.53000    1.42000  # c,c,c1,o3e
dihedral_coeff	 8 ebt   -0.31900    0.44110   -0.71740    1.15380    0.84090   -0.91380    1.53000    1.42000  # c,c,c1,oc
dihedral_coeff	 9 ebt   -0.07320    0.00000    0.00000   -0.07320    0.00000    0.00000    1.53000    1.53000  # c,c1,c,c1
dihedral_coeff	10 ebt    0.08140    0.05910    0.22190    0.24860    0.24220   -0.09250    1.53000    1.10100  # c,c1,c,hc
dihedral_coeff	11 ebt    0.00000    0.00000    0.00000    0.00000    0.00000    0.00000    1.53000    1.43000  # c,c1,c,o_2
dihedral_coeff	12 ebt   -0.07320    0.00000    0.00000   -0.07320    0.00000    0.00000    1.53000    1.53000  # c,c1,c1,c
dihedral_coeff	13 ebt    0.08140    0.05910    0.22190    0.24860    0.24220   -0.09250    1.53000    1.10100  # c,c1,c1,hc
dihedral_coeff	14 ebt   -0.31900    0.44110   -0.71740    1.15380    0.84090   -0.91380    1.53000    1.42000  # c,c1,c1,o3e
dihedral_coeff	15 ebt   -0.31900    0.44110   -0.71740    1.15380    0.84090   -0.91380    1.53000    1.42000  # c,c1,c1,oc
dihedral_coeff	16 ebt   -0.31900    0.44110   -0.71740    1.15380    0.84090   -0.91380    1.53000    1.42000  # c,c1,c1,oh
dihedral_coeff	17 ebt   -0.28100    0.08160   -0.15220    0.26540    0.05030    0.10460    1.53000    1.20200  # c,c1,c_1,o_1
dihedral_coeff	18 ebt    0.00000    0.00000    0.00000    0.00000    0.00000    0.00000    1.53000    1.36830  # c,c1,c_1,o_2
dihedral_coeff	19 ebt    0.47410    1.26350    0.55760   -0.24560    1.05170   -0.77950    1.53000    1.42000  # c,c1,o3e,c1
dihedral_coeff	20 ebt    0.47410    1.26350    0.55760   -0.24560    1.05170   -0.77950    1.53000    1.42000  # c,c1,oc,c1
dihedral_coeff	21 ebt    0.00000    0.00000    0.00000    0.00000    0.00000    0.00000    1.53000    0.96000  # c,c1,oh,h
dihedral_coeff	22 ebt    0.00000    0.00000    0.00000    0.00000    0.00000    0.00000    1.43000    1.52020  # c,o_2,c_1,c1
dihedral_coeff	23 ebt    0.00000    0.00000    0.00000    0.00000    0.00000    0.00000    1.43000    1.20200  # c,o_2,c_1,o_1
dihedral_coeff	24 ebt   -0.07320    0.00000    0.00000   -0.07320    0.00000    0.00000    1.53000    1.53000  # c1,c,c,c1
dihedral_coeff	25 ebt    0.24860    0.24220   -0.09250    0.08140    0.05910    0.22190    1.53000    1.10100  # c1,c,c,hc
dihedral_coeff	26 ebt   -0.07320    0.00000    0.00000   -0.07320    0.00000    0.00000    1.53000    1.53000  # c1,c,c1,c1
dihedral_coeff	27 ebt    0.00550    0.00600   -0.00090    0.00620   -0.00020    0.00360    1.53000    1.52020  # c1,c,c1,c_1
dihedral_coeff	28 ebt    0.24860    0.24220   -0.09250    0.08140    0.05910    0.22190    1.53000    1.10100  # c1,c,c1,hc
dihedral_coeff	29 ebt   -0.31900    0.44110   -0.71740    1.15380    0.84090   -0.91380    1.53000    1.42000  # c1,c,c1,o3e
dihedral_coeff	30 ebt   -0.31900    0.44110   -0.71740    1.15380    0.84090   -0.91380    1.53000    1.42000  # c1,c,c1,oc
dihedral_coeff	31 ebt   -0.31900    0.44110   -0.71740    1.15380    0.84090   -0.91380    1.53000    1.42000  # c1,c,c1,oh
dihedral_coeff	32 ebt    0.00000    0.00000    0.00000    0.00000    0.00000    0.00000    1.53000    1.36830  # c1,c,o_2,c_1
dihedral_coeff	33 ebt    0.24860    0.24220   -0.09250    0.08140    0.05910    0.22190    1.53000    1.10100  # c1,c1,c,hc
dihedral_coeff	34 ebt   -0.24560    1.05170   -0.77950    0.47410    1.26350    0.55760    1.53000    1.42000  # c1,c1,oc,c1
dihedral_coeff	35 ebt    0.00000    0.00000    0.00000    0.00000    0.00000    0.00000    1.53000    0.96000  # c1,c1,oh,h
dihedral_coeff	36 ebt   -0.16200    0.15640   -1.14080   -0.60540    1.33390    0.96480    1.42000    1.10100  # c1,o3e,c1,hc
dihedral_coeff	37 ebt   -0.16200    0.15640   -1.14080   -0.60540    1.33390    0.96480    1.42000    1.10100  # c1,oc,c1,hc
dihedral_coeff	38 ebt   -0.02040    0.36280   -0.44260   -0.00970   -0.03150   -0.07550    1.52020    1.10100  # c_1,c1,c,hc
dihedral_coeff	39 ebt    0.00000    0.00000    0.00000    0.00000    0.00000    0.00000    1.36830    1.10100  # c_1,o_2,c,hc
dihedral_coeff	40 ebt    0.00000    0.00000    0.00000    0.00000    0.00000    0.00000    0.96000    1.10100  # h,oh,c1,hc
dihedral_coeff	41 ebt    0.21300    0.31200    0.07770    0.21300    0.31200    0.07770    1.10100    1.10100  # hc,c,c,hc
dihedral_coeff	42 ebt    0.21300    0.31200    0.07770    0.21300    0.31200    0.07770    1.10100    1.10100  # hc,c,c1,hc
dihedral_coeff	43 ebt    0.96810    0.95510    0.04360    0.59030    0.66690    0.85840    1.10100    1.42000  # hc,c,c1,o3e
dihedral_coeff	44 ebt    0.96810    0.95510    0.04360    0.59030    0.66690    0.85840    1.10100    1.42000  # hc,c,c1,oc
dihedral_coeff	45 ebt    0.96810    0.95510    0.04360    0.59030    0.66690    0.85840    1.10100    1.42000  # hc,c,c1,oh
dihedral_coeff	46 ebt    0.00000    0.00000    0.00000    0.00000    0.00000    0.00000    1.10100    1.43000  # hc,c1,c,o_2
dihedral_coeff	47 ebt    0.21300    0.31200    0.07770    0.21300    0.31200    0.07770    1.10100    1.10100  # hc,c1,c1,hc
dihedral_coeff	48 ebt    0.96810    0.95510    0.04360    0.59030    0.66690    0.85840    1.10100    1.42000  # hc,c1,c1,o3e
dihedral_coeff	49 ebt    0.96810    0.95510    0.04360    0.59030    0.66690    0.85840    1.10100    1.42000  # hc,c1,c1,oc
dihedral_coeff	50 ebt    0.96810    0.95510    0.04360    0.59030    0.66690    0.85840    1.10100    1.42000  # hc,c1,c1,oh
dihedral_coeff	51 ebt   -0.22980    0.03540    0.38530    1.21430    0.28310    0.39160    1.10100    1.20200  # hc,c1,c_1,o_1
dihedral_coeff	52 ebt    0.00000    0.00000    0.00000    0.00000    0.00000    0.00000    1.10100    1.36830  # hc,c1,c_1,o_2
dihedral_coeff	53 ebt    1.01650    0.75530   -0.46090    1.01650    0.75530   -0.46090    1.42000    1.42000  # oc,c1,c1,oc
dihedral_coeff	54 ebt    1.01650    0.75530   -0.46090    1.01650    0.75530   -0.46090    1.42000    1.42000  # oc,c1,c1,oh

# AngleTorsion Coeffs

dihedral_coeff	 1 at    0.38860   -0.31390    0.13890    0.38860   -0.31390    0.13890  112.67000  112.67000  # c,c,c,c1
dihedral_coeff	 2 at    0.31130    0.45160   -0.19880   -0.24540    0.00000   -0.11360  112.67000  110.77000  # c,c,c,hc
dihedral_coeff	 3 at    0.38860   -0.31390    0.13890    0.38860   -0.31390    0.13890  112.67000  112.67000  # c,c,c1,c
dihedral_coeff	 4 at    0.38860   -0.31390    0.13890    0.38860   -0.31390    0.13890  112.67000  112.67000  # c,c,c1,c1
dihedral_coeff	 5 at    0.05150   -0.06740   -0.04740   -0.26070    0.32030   -0.22830  112.67000  108.52950  # c,c,c1,c_1
dihedral_coeff	 6 at    0.31130    0.45160   -0.19880   -0.24540    0.00000   -0.11360  112.67000  110.77000  # c,c,c1,hc
dihedral_coeff	 7 at    0.56230   -0.30410   -0.40150    0.96720   -0.75660   -1.23310  112.67000  111.27000  # c,c,c1,o3e
dihedral_coeff	 8 at    0.56230   -0.30410   -0.40150    0.96720   -0.75660   -1.23310  112.67000  111.27000  # c,c,c1,oc
dihedral_coeff	 9 at    0.38860   -0.31390    0.13890    0.38860   -0.31390    0.13890  112.67000  112.67000  # c,c1,c,c1
dihedral_coeff	10 at    0.31130    0.45160   -0.19880   -0.24540    0.00000   -0.11360  112.67000  110.77000  # c,c1,c,hc
dihedral_coeff	11 at    0.00000    0.00000    0.00000    0.00000    0.00000    0.00000  112.67000  107.41000  # c,c1,c,o_2
dihedral_coeff	12 at    0.38860   -0.31390    0.13890    0.38860   -0.31390    0.13890  112.67000  112.67000  # c,c1,c1,c
dihedral_coeff	13 at    0.31130    0.45160   -0.19880   -0.24540    0.00000   -0.11360  112.67000  110.77000  # c,c1,c1,hc
dihedral_coeff	14 at    0.56230   -0.30410   -0.40150    0.96720   -0.75660   -1.23310  112.67000  111.27000  # c,c1,c1,o3e
dihedral_coeff	15 at    0.56230   -0.30410   -0.40150    0.96720   -0.75660   -1.23310  112.67000  111.27000  # c,c1,c1,oc
dihedral_coeff	16 at    0.56230   -0.30410   -0.40150    0.96720   -0.75660   -1.23310  112.67000  111.27000  # c,c1,c1,oh
dihedral_coeff	17 at    0.67500    0.59650    0.67250    0.08850   -1.37030   -0.54520  108.52950  123.14510  # c,c1,c_1,o_1
dihedral_coeff	18 at    0.00000    0.00000    0.00000    0.00000    0.00000    0.00000  108.52950  100.31820  # c,c1,c_1,o_2
dihedral_coeff	19 at    0.56760    0.94500    0.07030   -2.74660    1.48770   -0.89550  111.27000  104.50000  # c,c1,o3e,c1
dihedral_coeff	20 at    0.56760    0.94500    0.07030   -2.74660    1.48770   -0.89550  111.27000  104.50000  # c,c1,oc,c1
dihedral_coeff	21 at    0.00000    0.00000    0.00000    0.00000    0.00000    0.00000  111.27000  109.00000  # c,c1,oh,h
dihedral_coeff	22 at    0.00000    0.00000    0.00000    0.00000    0.00000    0.00000  113.28800  100.31820  # c,o_2,c_1,c1
dihedral_coeff	23 at    0.00000    0.00000    0.00000    0.00000    0.00000    0.00000  113.28800  120.79700  # c,o_2,c_1,o_1
dihedral_coeff	24 at    0.38860   -0.31390    0.13890    0.38860   -0.31390    0.13890  112.67000  112.67000  # c1,c,c,c1
dihedral_coeff	25 at   -0.24540    0.00000   -0.11360    0.31130    0.45160   -0.19880  112.67000  110.77000  # c1,c,c,hc
dihedral_coeff	26 at    0.38860   -0.31390    0.13890    0.38860   -0.31390    0.13890  112.67000  112.67000  # c1,c,c1,c1
dihedral_coeff	27 at    0.05150   -0.06740   -0.04740   -0.26070    0.32030   -0.22830  112.67000  108.52950  # c1,c,c1,c_1
dihedral_coeff	28 at   -0.24540    0.00000   -0.11360    0.31130    0.45160   -0.19880  112.67000  110.77000  # c1,c,c1,hc
dihedral_coeff	29 at    0.56230   -0.30410   -0.40150    0.96720   -0.75660   -1.23310  112.67000  111.27000  # c1,c,c1,o3e
dihedral_coeff	30 at    0.56230   -0.30410   -0.40150    0.96720   -0.75660   -1.23310  112.67000  111.27000  # c1,c,c1,oc
dihedral_coeff	31 at    0.56230   -0.30410   -0.40150    0.96720   -0.75660   -1.23310  112.67000  111.27000  # c1,c,c1,oh
dihedral_coeff	32 at    0.00000    0.00000    0.00000    0.00000    0.00000    0.00000  107.41000  113.28800  # c1,c,o_2,c_1
dihedral_coeff	33 at   -0.24540    0.00000   -0.11360    0.31130    0.45160   -0.19880  112.67000  110.77000  # c1,c1,c,hc
dihedral_coeff	34 at   -2.74660    1.48770   -0.89550    0.56760    0.94500    0.07030  111.27000  104.50000  # c1,c1,oc,c1
dihedral_coeff	35 at    0.00000    0.00000    0.00000    0.00000    0.00000    0.00000  111.27000  109.00000  # c1,c1,oh,h
dihedral_coeff	36 at   -0.77770    0.43400   -0.66530   -1.82340    1.63930    0.51440  104.50000  108.72800  # c1,o3e,c1,hc
dihedral_coeff	37 at   -0.77770    0.43400   -0.66530   -1.82340    1.63930    0.51440  104.50000  108.72800  # c1,oc,c1,hc
dihedral_coeff	38 at   -0.74660   -0.94480   -0.63210    0.01620    1.42110   -1.40920  108.52950  110.77000  # c_1,c1,c,hc
dihedral_coeff	39 at    0.00000    0.00000    0.00000    0.00000    0.00000    0.00000  113.28800  107.68800  # c_1,o_2,c,hc
dihedral_coeff	40 at    0.00000    0.00000    0.00000    0.00000    0.00000    0.00000  109.00000  108.72800  # h,oh,c1,hc
dihedral_coeff	41 at   -0.80850    0.55690   -0.24660   -0.80850    0.55690   -0.24660  110.77000  110.77000  # hc,c,c,hc
dihedral_coeff	42 at   -0.80850    0.55690   -0.24660   -0.80850    0.55690   -0.24660  110.77000  110.77000  # hc,c,c1,hc
dihedral_coeff	43 at    2.36680    2.49200   -1.01220   -0.18920    0.49180    0.72730  110.77000  111.27000  # hc,c,c1,o3e
dihedral_coeff	44 at    2.36680    2.49200   -1.01220   -0.18920    0.49180    0.72730  110.77000  111.27000  # hc,c,c1,oc
dihedral_coeff	45 at    2.36680    2.49200   -1.01220   -0.18920    0.49180    0.72730  110.77000  111.27000  # hc,c,c1,oh
dihedral_coeff	46 at    0.00000    0.00000    0.00000    0.00000    0.00000    0.00000  110.77000  107.41000  # hc,c1,c,o_2
dihedral_coeff	47 at   -0.80850    0.55690   -0.24660   -0.80850    0.55690   -0.24660  110.77000  110.77000  # hc,c1,c1,hc
dihedral_coeff	48 at    2.36680    2.49200   -1.01220   -0.18920    0.49180    0.72730  110.77000  111.27000  # hc,c1,c1,o3e
dihedral_coeff	49 at    2.36680    2.49200   -1.01220   -0.18920    0.49180    0.72730  110.77000  111.27000  # hc,c1,c1,oc
dihedral_coeff	50 at    2.36680    2.49200   -1.01220   -0.18920    0.49180    0.72730  110.77000  111.27000  # hc,c1,c1,oh
dihedral_coeff	51 at   -1.49460    0.73080   -0.20830    9.12990   -0.48470    0.35820  107.73360  123.14510  # hc,c1,c_1,o_1
dihedral_coeff	52 at    0.00000    0.00000    0.00000    0.00000    0.00000    0.00000  107.73360  100.31820  # hc,c1,c_1,o_2
dihedral_coeff	53 at    0.55110    0.97370   -0.66730    0.55110    0.97370   -0.66730  111.27000  111.27000  # oc,c1,c1,oc
dihedral_coeff	54 at    0.55110    0.97370   -0.66730    0.55110    0.97370   -0.66730  111.27000  111.27000  # oc,c1,c1,oh

# AngleAngleTorsion Coeffs

dihedral_coeff	 1 aat  -22.04500  112.67000  112.67000  # c,c,c,c1
dihedral_coeff	 2 aat  -16.16400  112.67000  110.77000  # c,c,c,hc
dihedral_coeff	 3 aat  -22.04500  112.67000  112.67000  # c,c,c1,c
dihedral_coeff	 4 aat  -22.04500  112.67000  112.67000  # c,c,c1,c1
dihedral_coeff	 5 aat   -0.38010  112.67000  108.52950  # c,c,c1,c_1
dihedral_coeff	 6 aat  -16.16400  112.67000  110.77000  # c,c,c1,hc
dihedral_coeff	 7 aat  -29.04200  112.67000  111.27000  # c,c,c1,o3e
dihedral_coeff	 8 aat  -29.04200  112.67000  111.27000  # c,c,c1,oc
dihedral_coeff	 9 aat  -22.04500  112.67000  112.67000  # c,c1,c,c1
dihedral_coeff	10 aat  -16.16400  112.67000  110.77000  # c,c1,c,hc
dihedral_coeff	11 aat    0.00000  112.67000  107.41000  # c,c1,c,o_2
dihedral_coeff	12 aat  -22.04500  112.67000  112.67000  # c,c1,c1,c
dihedral_coeff	13 aat  -16.16400  112.67000  110.77000  # c,c1,c1,hc
dihedral_coeff	14 aat  -29.04200  112.67000  111.27000  # c,c1,c1,o3e
dihedral_coeff	15 aat  -29.04200  112.67000  111.27000  # c,c1,c1,oc
dihedral_coeff	16 aat  -29.04200  112.67000  111.27000  # c,c1,c1,oh
dihedral_coeff	17 aat   -8.01900  108.52950  123.14510  # c,c1,c_1,o_1
dihedral_coeff	18 aat    0.00000  108.52950  100.31820  # c,c1,c_1,o_2
dihedral_coeff	19 aat  -19.00590  111.27000  104.50000  # c,c1,o3e,c1
dihedral_coeff	20 aat  -19.00590  111.27000  104.50000  # c,c1,oc,c1
dihedral_coeff	21 aat    0.00000  111.27000  109.00000  # c,c1,oh,h
dihedral_coeff	22 aat    0.00000  113.28800  100.31820  # c,o_2,c_1,c1
dihedral_coeff	23 aat    0.00000  113.28800  120.79700  # c,o_2,c_1,o_1
dihedral_coeff	24 aat  -22.04500  112.67000  112.67000  # c1,c,c,c1
dihedral_coeff	25 aat  -16.16400  112.67000  110.77000  # c1,c,c,hc
dihedral_coeff	26 aat  -22.04500  112.67000  112.67000  # c1,c,c1,c1
dihedral_coeff	27 aat   -0.38010  112.67000  108.52950  # c1,c,c1,c_1
dihedral_coeff	28 aat  -16.16400  112.67000  110.77000  # c1,c,c1,hc
dihedral_coeff	29 aat  -29.04200  112.67000  111.27000  # c1,c,c1,o3e
dihedral_coeff	30 aat  -29.04200  112.67000  111.27000  # c1,c,c1,oc
dihedral_coeff	31 aat  -29.04200  112.67000  111.27000  # c1,c,c1,oh
dihedral_coeff	32 aat    0.00000  107.41000  113.28800  # c1,c,o_2,c_1
dihedral_coeff	33 aat  -16.16400  112.67000  110.77000  # c1,c1,c,hc
dihedral_coeff	34 aat  -19.00590  111.27000  104.50000  # c1,c1,oc,c1
dihedral_coeff	35 aat    0.00000  111.27000  109.00000  # c1,c1,oh,h
dihedral_coeff	36 aat  -16.44380  104.50000  108.72800  # c1,o3e,c1,hc
dihedral_coeff	37 aat  -16.44380  104.50000  108.72800  # c1,oc,c1,hc
dihedral_coeff	38 aat   -5.36240  108.52950  110.77000  # c_1,c1,c,hc
dihedral_coeff	39 aat    0.00000  113.28800  107.68800  # c_1,o_2,c,hc
dihedral_coeff	40 aat    0.00000  109.00000  108.72800  # h,oh,c1,hc
dihedral_coeff	41 aat  -12.56400  110.77000  110.77000  # hc,c,c,hc
dihedral_coeff	42 aat  -12.56400  110.77000  110.77000  # hc,c,c1,hc
dihedral_coeff	43 aat  -20.20060  110.77000  111.27000  # hc,c,c1,o3e
dihedral_coeff	44 aat  -20.20060  110.77000  111.27000  # hc,c,c1,oc
dihedral_coeff	45 aat  -20.20060  110.77000  111.27000  # hc,c,c1,oh
dihedral_coeff	46 aat    0.00000  110.77000  107.41000  # hc,c1,c,o_2
dihedral_coeff	47 aat  -12.56400  110.77000  110.77000  # hc,c1,c1,hc
dihedral_coeff	48 aat  -20.20060  110.77000  111.27000  # hc,c1,c1,o3e
dihedral_coeff	49 aat  -20.20060  110.77000  111.27000  # hc,c1,c1,oc
dihedral_coeff	50 aat  -20.20060  110.77000  111.27000  # hc,c1,c1,oh
dihedral_coeff	51 aat  -15.34960  107.73360  123.14510  # hc,c1,c_1,o_1
dihedral_coeff	52 aat    0.00000  107.73360  100.31820  # hc,c1,c_1,o_2
dihedral_coeff	53 aat  -14.04840  111.27000  111.27000  # oc,c1,c1,oc
dihedral_coeff	54 aat  -14.04840  111.27000  111.27000  # oc,c1,c1,oh

# BondBond13 Coeffs

dihedral_coeff	 1 bb13    0.00000    1.53000    1.53000  # c,c,c,c1
dihedral_coeff	 2 bb13    0.00000    1.53000    1.10100  # c,c,c,hc
dihedral_coeff	 3 bb13    0.00000    1.53000    1.53000  # c,c,c1,c
dihedral_coeff	 4 bb13    0.00000    1.53000    1.53000  # c,c,c1,c1
dihedral_coeff	 5 bb13    0.00000    1.53000    1.52020  # c,c,c1,c_1
dihedral_coeff	 6 bb13    0.00000    1.53000    1.10100  # c,c,c1,hc
dihedral_coeff	 7 bb13    0.00000    1.53000    1.42000  # c,c,c1,o3e
dihedral_coeff	 8 bb13    0.00000    1.53000    1.42000  # c,c,c1,oc
dihedral_coeff	 9 bb13    0.00000    1.53000    1.53000  # c,c1,c,c1
dihedral_coeff	10 bb13    0.00000    1.53000    1.10100  # c,c1,c,hc
dihedral_coeff	11 bb13    0.00000    1.53000    1.43000  # c,c1,c,o_2
dihedral_coeff	12 bb13    0.00000    1.53000    1.53000  # c,c1,c1,c
dihedral_coeff	13 bb13    0.00000    1.53000    1.10100  # c,c1,c1,hc
dihedral_coeff	14 bb13    0.00000    1.53000    1.42000  # c,c1,c1,o3e
dihedral_coeff	15 bb13    0.00000    1.53000    1.42000  # c,c1,c1,oc
dihedral_coeff	16 bb13    0.00000    1.53000    1.42000  # c,c1,c1,oh
dihedral_coeff	17 bb13    0.00000    1.53000    1.20200  # c,c1,c_1,o_1
dihedral_coeff	18 bb13    0.00000    1.53000    1.36830  # c,c1,c_1,o_2
dihedral_coeff	19 bb13    0.00000    1.53000    1.42000  # c,c1,o3e,c1
dihedral_coeff	20 bb13    0.00000    1.53000    1.42000  # c,c1,oc,c1
dihedral_coeff	21 bb13    0.00000    1.53000    0.96000  # c,c1,oh,h
dihedral_coeff	22 bb13    0.00000    1.43000    1.52020  # c,o_2,c_1,c1
dihedral_coeff	23 bb13    0.00000    1.43000    1.20200  # c,o_2,c_1,o_1
dihedral_coeff	24 bb13    0.00000    1.53000    1.53000  # c1,c,c,c1
dihedral_coeff	25 bb13    0.00000    1.53000    1.10100  # c1,c,c,hc
dihedral_coeff	26 bb13    0.00000    1.53000    1.53000  # c1,c,c1,c1
dihedral_coeff	27 bb13    0.00000    1.53000    1.52020  # c1,c,c1,c_1
dihedral_coeff	28 bb13    0.00000    1.53000    1.10100  # c1,c,c1,hc
dihedral_coeff	29 bb13    0.00000    1.53000    1.42000  # c1,c,c1,o3e
dihedral_coeff	30 bb13    0.00000    1.53000    1.42000  # c1,c,c1,oc
dihedral_coeff	31 bb13    0.00000    1.53000    1.42000  # c1,c,c1,oh
dihedral_coeff	32 bb13    0.00000    1.53000    1.36830  # c1,c,o_2,c_1
dihedral_coeff	33 bb13    0.00000    1.53000    1.10100  # c1,c1,c,hc
dihedral_coeff	34 bb13    0.00000    1.53000    1.42000  # c1,c1,oc,c1
dihedral_coeff	35 bb13    0.00000    1.53000    0.96000  # c1,c1,oh,h
dihedral_coeff	36 bb13    0.00000    1.42000    1.10100  # c1,o3e,c1,hc
dihedral_coeff	37 bb13    0.00000    1.42000    1.10100  # c1,oc,c1,hc
dihedral_coeff	38 bb13    0.00000    1.52020    1.10100  # c_1,c1,c,hc
dihedral_coeff	39 bb13    0.00000    1.36830    1.10100  # c_1,o_2,c,hc
dihedral_coeff	40 bb13    0.00000    0.96000    1.10100  # h,oh,c1,hc
dihedral_coeff	41 bb13    0.00000    1.10100    1.10100  # hc,c,c,hc
dihedral_coeff	42 bb13    0.00000    1.10100    1.10100  # hc,c,c1,hc
dihedral_coeff	43 bb13    0.00000    1.10100    1.42000  # hc,c,c1,o3e
dihedral_coeff	44 bb13    0.00000    1.10100    1.42000  # hc,c,c1,oc
dihedral_coeff	45 bb13    0.00000    1.10100    1.42000  # hc,c,c1,oh
dihedral_coeff	46 bb13    0.00000    1.10100    1.43000  # hc,c1,c,o_2
dihedral_coeff	47 bb13    0.00000    1.10100    1.10100  # hc,c1,c1,hc
dihedral_coeff	48 bb13    0.00000    1.10100    1.42000  # hc,c1,c1,o3e
dihedral_coeff	49 bb13    0.00000    1.10100    1.42000  # hc,c1,c1,oc
dihedral_coeff	50 bb13    0.00000    1.10100    1.42000  # hc,c1,c1,oh
dihedral_coeff	51 bb13    0.00000    1.10100    1.20200  # hc,c1,c_1,o_1
dihedral_coeff	52 bb13    0.00000    1.10100    1.36830  # hc,c1,c_1,o_2
dihedral_coeff	53 bb13    0.00000    1.42000    1.42000  # oc,c1,c1,oc
dihedral_coeff	54 bb13    0.00000    1.42000    1.42000  # oc,c1,c1,oh

# Improper Coeffs

improper_coeff	 1    0.00000    0.00000  # c,c,c,hc
improper_coeff	 2    0.00000    0.00000  # c,c,c1,hc
improper_coeff	 3    0.00000    0.00000  # c,c,hc,c1
improper_coeff	 4    0.00000    0.00000  # c,c,hc,hc
improper_coeff	 5    0.00000    0.00000  # c,c1,c1,hc
improper_coeff	 6    0.00000    0.00000  # c,c1,hc,hc
improper_coeff	 7    0.00000    0.00000  # c,c1,hc,o_2
improper_coeff	 8    0.00000    0.00000  # c,c1,o_2,hc
improper_coeff	 9    0.00000    0.00000  # c,hc,hc,o_2
improper_coeff	10    0.00000    0.00000  # c1,c,c,c
improper_coeff	11    0.00000    0.00000  # c1,c,c,c_1
improper_coeff	12    0.00000    0.00000  # c1,c,c,hc
improper_coeff	13    0.00000    0.00000  # c1,c,c,oc
improper_coeff	14    0.00000    0.00000  # c1,c,c1,hc
improper_coeff	15    0.00000    0.00000  # c1,c,c1,o3e
improper_coeff	16    0.00000    0.00000  # c1,c,c1,oc
improper_coeff	17    0.00000    0.00000  # c1,c,c1,oh
improper_coeff	18    0.00000    0.00000  # c1,c,c_1,hc
improper_coeff	19    0.00000    0.00000  # c1,c,hc,c1
improper_coeff	20    0.00000    0.00000  # c1,c,hc,c_1
improper_coeff	21    0.00000    0.00000  # c1,c,hc,o3e
improper_coeff	22    0.00000    0.00000  # c1,c,hc,oc
improper_coeff	23    0.00000    0.00000  # c1,c,hc,oh
improper_coeff	24    0.00000    0.00000  # c1,c,o3e,hc
improper_coeff	25    0.00000    0.00000  # c1,c,oc,c1
improper_coeff	26    0.00000    0.00000  # c1,c,oc,hc
improper_coeff	27    0.00000    0.00000  # c1,c1,hc,oc
improper_coeff	28    0.00000    0.00000  # c1,c1,o3e,hc
improper_coeff	29    0.00000    0.00000  # c1,c1,oc,hc
improper_coeff	30    0.00000    0.00000  # c1,c1,oh,hc
improper_coeff	31   46.92640    0.00000  # c_1,c1,o_1,o_2
improper_coeff	32   46.92640    0.00000  # c_1,c1,o_2,o_1

# AngleAngle Coeffs

improper_coeff	 1 aa    0.00000    0.00000    0.11840  112.67000  110.77000  110.77000  # c,c,c,hc
improper_coeff	 2 aa    0.00000   -1.31990    0.00000  112.67000  110.77000  110.77000  # c,c,c1,hc
improper_coeff	 3 aa    0.00000   -1.31990    0.00000  110.77000  112.67000  110.77000  # c,c,hc,c1
improper_coeff	 4 aa    0.00000   -0.48250    0.00000  110.77000  110.77000  107.66000  # c,c,hc,hc
improper_coeff	 5 aa   -1.31990   -1.31990    0.11840  112.67000  110.77000  110.77000  # c,c1,c1,hc
improper_coeff	 6 aa    0.27380   -0.48250    0.27380  110.77000  110.77000  107.66000  # c,c1,hc,hc
improper_coeff	 7 aa    0.00000    0.00000    0.00000  110.77000  107.41000  107.68800  # c,c1,hc,o_2
improper_coeff	 8 aa    0.00000    0.00000    0.00000  107.41000  110.77000  107.68800  # c,c1,o_2,hc
improper_coeff	 9 aa    0.00000    0.00000    0.00000  107.66000  107.68800  107.68800  # c,hc,hc,o_2
improper_coeff	10 aa   -0.17290   -0.17290   -0.17290  112.67000  112.67000  112.67000  # c1,c,c,c
improper_coeff	11 aa    0.00000    0.00000    0.00000  112.67000  108.52950  108.52950  # c1,c,c,c_1
improper_coeff	12 aa    0.00000    0.00000    0.11840  112.67000  110.77000  110.77000  # c1,c,c,hc
improper_coeff	13 aa   -0.83300   -0.83300   -3.57440  112.67000  111.27000  111.27000  # c1,c,c,oc
improper_coeff	14 aa    0.00000   -1.31990    0.00000  112.67000  110.77000  110.77000  # c1,c,c1,hc
improper_coeff	15 aa   -0.83300   -0.83300    0.00000  112.67000  111.27000  111.27000  # c1,c,c1,o3e
improper_coeff	16 aa   -0.83300   -0.83300    0.00000  112.67000  111.27000  111.27000  # c1,c,c1,oc
improper_coeff	17 aa   -0.83300   -0.83300    0.00000  112.67000  111.27000  111.27000  # c1,c,c1,oh
improper_coeff	18 aa    0.00000   -1.82020    0.00000  108.52950  110.77000  107.73360  # c1,c,c_1,hc
improper_coeff	19 aa    0.00000   -1.31990    0.00000  110.77000  112.67000  110.77000  # c1,c,hc,c1
improper_coeff	20 aa    0.00000   -1.82020    0.00000  110.77000  108.52950  107.73360  # c1,c,hc,c_1
improper_coeff	21 aa    3.91770    2.59260    0.00000  110.77000  111.27000  108.72800  # c1,c,hc,o3e
improper_coeff	22 aa    3.91770    2.59260    0.00000  110.77000  111.27000  108.72800  # c1,c,hc,oc
improper_coeff	23 aa    3.91770    2.59260    0.00000  110.77000  111.27000  108.72800  # c1,c,hc,oh
improper_coeff	24 aa    0.00000    2.59260    3.91770  111.27000  110.77000  108.72800  # c1,c,o3e,hc
improper_coeff	25 aa    0.00000   -0.83300   -0.83300  111.27000  112.67000  111.27000  # c1,c,oc,c1
improper_coeff	26 aa    0.00000    2.59260    3.91770  111.27000  110.77000  108.72800  # c1,c,oc,hc
improper_coeff	27 aa    3.91770    2.59260    0.16890  110.77000  111.27000  108.72800  # c1,c1,hc,oc
improper_coeff	28 aa    0.16890    2.59260    3.91770  111.27000  110.77000  108.72800  # c1,c1,o3e,hc
improper_coeff	29 aa    0.16890    2.59260    3.91770  111.27000  110.77000  108.72800  # c1,c1,oc,hc
improper_coeff	30 aa    0.16890    2.59260    3.91770  111.27000  110.77000  108.72800  # c1,c1,oh,hc
improper_coeff	31 aa    0.00000    0.00000    0.00000  123.14510  100.31820  120.79700  # c_1,c1,o_1,o_2
improper_coeff	32 aa    0.00000    0.00000    0.00000  100.31820  123.14510  120.79700  # c_1,c1,o_2,o_1


fix		1 all npt temp 300 300 1 y 0 0 100 z 0 0 100 drag 1
variable srate equal 1.0e8
variable srate1 equal "v_srate / 1.0e12"
fix		2 all deform 1 x erate ${srate1} units box remap x
fix		2 all deform 1 x erate 0.0001 units box remap x

variable tmp equal "lx"
variable L0 equal ${tmp}
variable L0 equal 37.6658958732064

variable strain equal "(lx - v_L0)/v_L0"
variable p1 equal "v_strain"
variable p2 equal "-pxx/10000"
variable p3 equal "-pyy/10000"
variable p4 equal "-pzz/10000"
fix def1 all print 100 "${p1} ${p2} ${p3} ${p4}" file Al_SC_100.def1.txt screen no

fix b1 all bond/break 10 1 3.0
fix b2 all bond/break 10 2 3.0
fix b3 all bond/break 10 3 3.0
fix b4 all bond/break 10 4 3.0
fix b5 all bond/break 10 5 3.0
fix b6 all bond/break 10 6 3.0
fix b7 all bond/break 10 7 3.0
fix b8 all bond/break 10 8 3.0
fix b9 all bond/break 10 9 3.0
fix b10 all bond/break 10 10 3.0
fix b11 all bond/break 10 11 3.0
fix b12 all bond/break 10 12 3.0
fix b12 all bond/break 10 13 3.0

variable bb equal (f_b1[1]+f_b2[1]+f_b3[1]+f_b4[1]+f_b5[1]+f_b6[1]+f_b7[1]+f_b9[1]+f_b8[1]+f_b10[1]+f_b11[1]+f_b12[1])

variable tmp equal "step"


variable x equal (v_bb)
thermo_style	custom step v_strain temp v_p2 v_p3 v_p4 ke pe press vol v_x
thermo 1

dump 4a all custom 100 dump.pos id type x y z vx vy vz mol

run 100000
PPPM initialization ...
  using 12-bit tables for long-range coulomb (../kspace.cpp:342)
  G vector (1/distance) = 0.15373212
  grid = 6 6 6
  stencil order = 5
  estimated absolute RMS force accuracy = 0.28183109
  estimated relative force accuracy = 0.00084872597
  using double precision KISS FFT
  3d grid and FFT values/proc = 616 36
Generated 45 of 45 mixed pair_coeff terms from sixthpower/geometric mixing rule
Neighbor list info ...
  update: every = 1 steps, delay = 0 steps, check = yes
  max neighbors/atom: 2000, page size: 100000
  master list distance cutoff = 12
  ghost atom cutoff = 12
  binsize = 6, bins = 7 7 7
  1 neighbor lists, perpetual/occasional/extra = 1 0 0
  (1) pair lj/class2/coul/long, perpetual
      attributes: half, newton on
      pair build: half/bin/newton
      stencil: half/bin/3d
      bin: standard
WARNING: Inconsistent image flags (../domain.cpp:815)
  PPPM/cg optimization cutoff: 1e-05
  Total charged atoms: 100.0%
  Min/max charged atoms/proc: 100.0% 100.0%
Per MPI rank memory allocation (min/avg/max) = 23.12 | 23.12 | 23.12 Mbytes
   Step        v_strain         Temp           v_p2           v_p3           v_p4          KinEng         PotEng         Press          Volume          v_x      
         0  -5.6593057e-16  616.26499      2.5843818      2.3496612      2.1319009      9094.8329      11263.879     -23553.146      53437.349      0            
         1   0.0001         615.38166      2.4653146      2.2420954      1.9925041      9081.7967      11265.168     -22333.047      53411.414      0            
         2   0.0002         609.20005      2.2623137      1.9383287      1.7116886      8990.5685      11344.847     -19707.77       53327.486      0            
         3   0.0003         606.70101      2.019311       1.5238898      1.369676       8953.6877      11355.914     -16376.256      53195.991      0            
         4   0.0004         611.30979      1.7879278      1.0915684      1.0455417      9021.7041      11251.383     -13083.46       53031.409      0            
         5   0.0005         617.5941       1.5851815      0.7100938      0.76181737     9114.4478      11132.816     -10190.309      52849.899      0            
         6   0.0006         620.71595      1.4149546      0.42235168     0.51076669     9160.5202      11068.554     -7826.91        52666.774      0            
         7   0.0007         619.57917      1.2653214      0.24002896     0.28035256     9143.7436      11076.472     -5952.3429      52494.163      0            
         8   0.0008         614.92035      1.1183278      0.15118876     0.075197916    9074.9887      11146.14      -4482.3816      52339.732      0            
         9   0.0009         612.1383       0.96460544     0.12528095    -0.098902222    9033.9312      11196.235     -3303.2806      52206.695      0            
        10   0.001          616.86597      0.81387568     0.11631341    -0.24539358     9103.7021      11125.443     -2282.6517      52094.988      0            
        11   0.0011         626.53794      0.65929665     0.064318498   -0.38505874     9246.441       10978.038     -1128.5214      52002.988      0            
        12   0.0012         632.65332      0.47977092    -0.066681084   -0.52116005     9336.6918      10886.997      360.23408      51929.345      0            
        13   0.0013         631.0186       0.27435267    -0.25074372    -0.61688906     9312.5665      10921.743      1977.6004      51873.848      0            
        14   0.0014         627.48132      0.090564033   -0.40524533    -0.61382506     9260.3634      10984.273      3095.0212      51836.769      0            
        15   0.0015         628.66724     -0.023061314   -0.44692518    -0.47450713     9277.8652      10965.881      3148.3121      51817.2        0            
        16   0.0016         631.82913     -0.05185411    -0.3433622     -0.21491918     9324.5283      10913.47       2033.785       51811.703      0            
        17   0.0017         631.08849      0.00034459126 -0.11077563     0.093653758    9313.598       10926.04       55.924278      51814.217      0            
        18   0.0018         625.45274      0.1293645      0.20379053     0.37588255     9230.4256      11009.308     -2363.4586      51817.172      0            
        19   0.0019         617.04013      0.31642312     0.52610819     0.58024761     9106.2725      11138.963     -4742.5964      51812.942      0            
        20   0.002          610.87034      0.53266781     0.78855687     0.68975203     9015.2188      11237.041     -6703.2557      51795.293      0            
        21   0.0021         613.11058      0.74158944     0.94261189     0.70592937     9048.2802      11201.996     -7967.1023      51760.3        0            
        22   0.0022         622.04474      0.89824146     0.95897415     0.63497684     9180.1303      11055.878     -8307.3081      51706.831      0            
        23   0.0023         629.40039      0.9565058      0.829848       0.48854328     9288.6851      10936.411     -7582.9903      51636.759      0            
        24   0.0024         630.77788      0.91240594     0.5924971      0.30481771     9309.014       10912.964     -6032.4025      51554.812      0            
        25   0.0025         629.56057      0.82354766     0.32849716     0.13611268     9291.0489      10930.691     -4293.8584      51467.434      0            
        26   0.0026         630.81724      0.76745529     0.1115095      0.034692286    9309.5948      10910.616     -3045.5236      51380.858      0            
        27   0.0027         633.87688      0.79055309    -0.015363004    0.017046818    9354.749       10860.456     -2640.7897      51299.383      0            
        28   0.0028         634.88653      0.88280404    -0.044137034    0.053697668    9369.6494      10847.101     -2974.5489      51224.693      0            
        29   0.0029         632.60759      1.0069812      0.010795819    0.093067585    9336.0168      10886.04      -3702.8154      51156.32       0            
        30   0.003          627.94757      1.1178545      0.11021259     0.099849527    9267.2443      10954.78      -4426.3888      51092.681      0            
        31   0.0031         622.66221      1.1709379      0.20539148     0.05907665     9189.243       11037.831     -4784.6867      51032.131      0            
        32   0.0032         621.18568      1.1537859      0.25621524    -0.025449809    9167.4524      11062.758     -4615.171       50973.773      0            
        33   0.0033         625.84512      1.0707763      0.2295278     -0.14505329     9236.2164      10986.574     -3850.8362      50917.851      0            
        34   0.0034         632.08435      0.927681       0.10505144    -0.29120668     9328.2949      10890.788     -2471.7525      50865.947      0            
        35   0.0035         635.29847      0.7428722     -0.096775295   -0.43613121     9375.7289      10846.411     -699.88566      50821.004      0            
        36   0.0036         635.14735      0.55222674    -0.30456144    -0.53110709     9373.4985      10855.214      944.80598      50786.617      0            
        37   0.0037         634.70393      0.39749198    -0.43738948    -0.53244783     9366.9546      10864.892      1907.8178      50765.544      0            
        38   0.0038         635.76216      0.29721283    -0.45280703    -0.42705715     9382.5719      10851.037      1942.1712      50758.302      0            
        39   0.0039         637.04641      0.24686816    -0.35726656    -0.24241583     9401.5249      10832.736      1176.0474      50762.707      0            
        40   0.004          636.92752      0.22629979    -0.18679882    -0.044005572    9399.7703      10831.823      15.015346      50774.482      0            
        41   0.0041         633.74336      0.20870053     0.0034600496   0.098327259    9352.7785      10882.109     -1034.9594      50788.614      0            
        42   0.0042         628.21525      0.17474303     0.15427878     0.15515659     9271.1948      10970.093     -1613.928       50800.891      0            
        43   0.0043         624.71321      0.11774053     0.22581449     0.13442447     9219.5117      11027.128     -1593.265       50808.904      0            
        44   0.0044         626.94015      0.036058622    0.21299754     0.060051078    9252.3769      10988.824     -1030.3575      50812.31       0            
        45   0.0045         632.20998     -0.082621934    0.13623953    -0.050551545    9330.1489      10906.73      -10.220183      50812.465      0            
        46   0.0046         635.60594     -0.24205566     0.027038997   -0.16335707     9380.2665      10854.484      1261.2458      50811.862      0            
        47   0.0047         636.00182     -0.42475393    -0.08885077    -0.22935063     9386.1089      10848.995      2476.5178      50813.273      0            
        48   0.0048         635.29596     -0.58792296    -0.18320364    -0.21541164     9375.6918      10862.543      3288.4608      50818.818      0            
        49   0.0049         636.16798     -0.68176088    -0.24267126    -0.12732623     9388.561       10849.211      3505.8612      50829.258      0            
        50   0.005          637.78241     -0.67832729    -0.27039605    -0.008926143    9412.3868      10824.408      3192.165       50843.983      0            
        51   0.0051         638.83794     -0.60212654    -0.27729697     0.086982243    9427.9642      10809.347      2641.4709      50861.658      0            
        52   0.0052         638.26376     -0.50697333    -0.28111277     0.11806857     9419.4906      10816.967      2233.3917      50881.045      0            
        53   0.0053         634.977       -0.43690946    -0.30138162     0.059762459    9370.9846      10868.111      2261.7621      50901.737      0            
        54   0.0054         631.42483     -0.40685606    -0.34716121    -0.078094138    9318.5616      10924.11       2773.7047      50924.664      0            
        55   0.0055         630.39275     -0.41376782    -0.41211621    -0.25416281     9303.3302      10939.172      3600.1561      50952.021      0            
        56   0.0056         631.74401     -0.44420699    -0.48328734    -0.42368162     9323.2722      10914.868      4503.9198      50986.62       0            
        57   0.0057         634.38957     -0.47520972    -0.54543327    -0.55264559     9362.3152      10870.629      5244.2953      51031.142      0            
        58   0.0058         636.66142     -0.48222982    -0.57952845    -0.60968735     9395.8432      10829.667      5571.4854      51087.518      0            
        59   0.0059         635.59766     -0.44785337    -0.56010839    -0.5783856      9380.1442      10841.585      5287.8245      51156.289      0            
        60   0.006          631.62396     -0.36163012    -0.46630277    -0.45991439     9321.5005      10903.172      4292.8243      51236.096      0            
        61   0.0061         628.59718     -0.21859622    -0.29229607    -0.27810838     9276.8312      10945.895      2630.0022      51323.47       0            
        62   0.0062         627.91052     -0.042573035   -0.062474945   -0.074368572    9266.6975      10953.364      598.05517      51413.184      0            
        63   0.0063         628.02939      0.12547959     0.17343857     0.10365663     9268.4518      10952.884     -1341.916       51499.271      0            
        64   0.0064         626.8292       0.25059469     0.36687936     0.22269796     9250.7394      10975.729     -2800.5733      51576.432      0            
        65   0.0065         625.64791      0.31132105     0.48348256     0.2815048      9233.306       11002.519     -3587.6947      51641.125      0            
        66   0.0066         627.65761      0.31008663     0.50679512     0.30505577     9262.9651      10976.207     -3739.7917      51691.918      0            
        67   0.0067         632.44615      0.26354497     0.4538645      0.29888077     9333.6344      10905.61      -3387.6342      51729.189      0            
        68   0.0068         637.78255      0.18657047     0.37102131     0.26041405     9412.3889      10828.262     -2726.6861      51754.661      0            
        69   0.0069         642.37148      0.088957328    0.294972       0.21277865     9480.1122      10757.78      -1989.0266      51770.718      0            
        70   0.007          644.25712     -0.019634968    0.22056065     0.19248303     9507.9404      10729.43      -1311.3624      51779.587      0            
        71   0.0071         642.28568     -0.11292649     0.13670229     0.20757361     9478.846       10763.512     -771.1647       51782.954      0            
        72   0.0072         638.38345     -0.15777101     0.05115331     0.2289427      9421.2569      10823.815     -407.75001      51782.044      0            
        73   0.0073         634.1268      -0.14825893    -0.018713392    0.21462314     9358.4374      10889.288     -158.83605      51777.932      0            
        74   0.0074         630.3997      -0.1243359     -0.057097919    0.14341082     9303.4328      10944.032      126.74335      51771.871      0            
        75   0.0075         628.07413     -0.14137821    -0.073812969    0.020129386    9269.1121      10978.741      650.20596      51765.359      0            
        76   0.0076         627.03616     -0.22027032    -0.097867731   -0.12428519     9253.7938      10994.077      1474.7441      51760.193      0            
        77   0.0077         628.38344     -0.3402576     -0.14260155    -0.26262436     9273.6768      10978.504      2484.945       51758.44       0            
        78   0.0078         633.27222     -0.45980405    -0.18131462    -0.38061367     9345.8254      10901.419      3405.7744      51762.25       0            
        79   0.0079         639.20672     -0.55530462    -0.18855785    -0.4753439      9433.4068      10812.83       4064.0212      51773.34       0            
        80   0.008          642.88105     -0.61397682    -0.16120933    -0.51519999     9487.6324      10754.91       4301.2871      51792.662      0            
        81   0.0081         643.11646     -0.62687965    -0.10927906    -0.46828692     9491.1067      10750.016      4014.8188      51819.996      0            
        82   0.0082         640.19533     -0.57658077    -0.032805802   -0.33547584     9447.9966      10795.442      3149.5414      51853.711      0            
        83   0.0083         635.29963     -0.45795312     0.068927587   -0.15217263     9375.7459      10869.396      1803.9939      51890.828      0            
        84   0.0084         629.74616     -0.28753399     0.1842021      0.025001421    9293.788       10948.663      261.10155      51927.518      0            
        85   0.0085         625.22485     -0.10594346     0.28513798     0.15062965     9227.0625      11018.59      -1099.4139      51960.02       0            
        86   0.0086         623.41046      0.04965542     0.33874308     0.21081247     9200.2857      11043.688     -1997.3699      51985.598      0            
        87   0.0087         622.74873      0.15451642     0.31871279     0.19957009     9190.5198      11053.649     -2242.6643      52003.099      0            
        88   0.0088         622.43367      0.20091564     0.23462795     0.12383144     9185.8702      11061.627     -1864.5834      52013.307      0            
        89   0.0089         625.06144      0.19471206     0.12300994     0.012445593    9224.6508      11023.894     -1100.5586      52018.633      0            
        90   0.009          630.20209      0.14825943     0.024091271   -0.096521445    9300.5165      10944.342     -252.76418      52022.194      0            
        91   0.0091         633.82226      0.07134929    -0.040396476   -0.17031457     9353.943       10888.266      464.5392       52026.773      0            
        92   0.0092         633.80057     -0.017942995   -0.072060641   -0.1838295      9353.6229      10890.806      912.77713      52034.122      0            
        93   0.0093         631.75799     -0.086671496   -0.088719735   -0.12995909     9323.4785      10924.455      1017.8344      52044.711      0            
        94   0.0094         630.46242     -0.10433184    -0.10897204    -0.04169951     9304.3585      10944.422      850.01131      52057.92       0            
        95   0.0095         630.02582     -0.067083462   -0.14610511     0.026518456    9297.9151      10947.708      622.23373      52072.756      0            
        96   0.0096         628.77579     -0.0072248049  -0.19944454     0.037468622    9279.4672      10969.457      564.00243      52088.751      0            
        97   0.0097         628.3885       0.028433263   -0.24648917    -0.011454269    9273.7515      10978.714      765.03393      52106.417      0            
        98   0.0098         629.72858      0.0072163188  -0.27662036    -0.10071232     9293.5284      10952.468      1233.7212      52126.947      0            
        99   0.0099         629.49942     -0.072724551   -0.30052197    -0.20920598     9290.1465      10955.058      1941.5083      52151.801      0            
       100   0.01           628.10634     -0.17486965    -0.31751394    -0.30158904     9269.5875      10978.718      2646.5754      52182.553      0            
       101   0.0101         628.58043     -0.25621427    -0.3027097     -0.33826987     9276.584       10967.414      2990.6461      52220.422      0            
       102   0.0102         630.00277     -0.29506463    -0.24784672    -0.29870079     9297.5749      10940.366      2805.3738      52265.425      0            
       103   0.0103         629.77611     -0.28999124    -0.17238333    -0.17842424     9294.2298      10941.975      2135.996       52316.031      0            
       104   0.0104         627.8079      -0.2376391     -0.096785583    0.013544897    9265.183       10971.602      1069.5993      52369.409      0            
       105   0.0105         626.2155      -0.13530773    -0.02570077     0.2417079      9241.6825      11000.937     -268.998        52421.87       0            
       106   0.0106         626.19115      0.0059059817   0.051605995    0.44235498     9241.3231      11000.513     -1666.2232      52469.452      0            
       107   0.0107         625.72471      0.14126754     0.13425244     0.54859483     9234.4394      11009.255     -2747.0494      52508.653      0            
       108   0.0108         624.46925      0.23464344     0.20499196     0.53218633     9215.9113      11036.027     -3239.4058      52537.319      0            
       109   0.0109         625.2942       0.28037725     0.24008695     0.40640222     9228.0858      11021.893     -3089.5547      52555.183      0            
       110   0.011          626.51214      0.28916413     0.22170248     0.19585047     9246.0602      11000.554     -2355.7236      52563.92       0            
       111   0.0111         626.68064      0.26781266     0.1560933     -0.049524494    9248.5469      11004.859     -1247.9382      52566.962      0            
       112   0.0112         629.41098      0.22787949     0.079498494   -0.25796477     9288.8413      10967.561     -164.7107       52568.682      0            
       113   0.0113         635.24603      0.17966006     0.027680823   -0.37546344     9374.9549      10873.411      560.40852      52572.924      0            
       114   0.0114         639.58648      0.11945988     0.0077020043  -0.38928129     9439.0113      10810.631      873.73137      52581.837      0            
       115   0.0115         638.97716      0.060761106    0.0082783988  -0.30117565     9430.0189      10821.147      773.78714      52595.689      0            
       116   0.0116         634.87613      0.031409138    0.020808446   -0.14961008     9369.496       10885.092      324.64167      52613.113      0            
       117   0.0117         631.50883      0.04986196     0.055197917   -0.00090583757  9319.8013      10934.844     -347.18013      52631.791      0            
       118   0.0118         629.86537      0.10099154     0.11202281     0.085815532    9295.5472      10954.62      -996.09959      52649.239      0            
       119   0.0119         627.98182      0.15557486     0.16916478     0.086929234    9267.7497      10985.863     -1372.2296      52663.59       0            
       120   0.012          627.10459      0.19776876     0.200361       0.02577723     9254.8036      11002.683     -1413.0233      52674.182      0            
       121   0.0121         628.23954      0.21899212     0.18599703    -0.05581968     9271.5532      10981.325     -1163.8982      52681.555      0            
       122   0.0122         628.578        0.21045433     0.12041381    -0.11867448     9276.5482      10976.158     -707.31219      52687.111      0            
       123   0.0123         628.20569      0.18535682     0.027610574   -0.1269866      9271.0536      10983.695     -286.60267      52692.635      0            
       124   0.0124         629.82444      0.17220676    -0.051573298   -0.062156275    9294.9431      10958.93      -194.92397      52699.485      0            
       125   0.0125         632.62902      0.19146611    -0.094957122    0.067970195    9336.3332      10913.308     -548.26394      52707.806      0            
       126   0.0126         634.04964      0.24141808    -0.11454335     0.22983016     9357.2985      10895.196     -1189.0163      52716.386      0            
       127   0.0127         633.1841       0.31195019    -0.11974939     0.38566001     9344.525       10908.327     -1926.2027      52723.307      0            
       128   0.0128         631.27849      0.38646821    -0.11102513     0.49714861     9316.402       10939.72      -2575.3056      52726.603      0            
       129   0.0129         630.47663      0.44937013    -0.08498141     0.52867654     9304.5681      10951.379     -2976.8842      52724.781      0            
       130   0.013          630.01927      0.47985936    -0.052935568    0.4534396      9297.8184      10958.644     -2934.5446      52717.237      0            
       131   0.0131         629.12491      0.46467083    -0.026220146    0.2713338      9284.6194      10972.76      -2365.9483      52704.737      0            
       132   0.0132         629.54134      0.41379932    -0.023101814    0.02244067     9290.7652      10965.838     -1377.1272      52689.536      0            
       133   0.0133         630.4082       0.34126353    -0.055251348   -0.22770511     9303.5583      10949.564     -194.35692      52675.024      0            
       134   0.0134         628.32584      0.2517396     -0.10776228    -0.42981775     9272.8269      10985.223      952.80141      52664.967      0            
       135   0.0135         624.5427       0.15582334    -0.13675591    -0.55050042     9216.9952      11048.389      1771.4433      52662.625      0            
       136   0.0136         623.32106      0.069674671   -0.10513602    -0.57131223     9198.9664      11069.383      2022.5786      52669.747      0            
       137   0.0137         624.75362      0.0017261063  -0.012317279   -0.49017222     9220.108       11047.303      1669.2113      52685.885      0            
       138   0.0138         625.98101     -0.051011964    0.10819544    -0.3279022      9238.2219      11025.876      902.39577      52708.43       0            
       139   0.0139         625.99865     -0.089274047    0.22048756    -0.13577829     9238.4821      11032.481      15.215907      52733.391      0            
       140   0.014          627.77472     -0.10222311     0.30743604     0.031548496    9264.6934      11008.721     -789.20474      52756.604      0            
       141   0.0141         632.3184      -0.092272597    0.35185802     0.13092875     9331.749       10937.735     -1301.7139      52774.696      0            
       142   0.0142         636.36517     -0.074667866    0.34590003     0.14450573     9391.4711      10878.483     -1385.793       52785.886      0            
       143   0.0143         639.56538     -0.059114893    0.29141014     0.095815567    9438.6999      10835.414     -1093.7027      52790.284      0            
       144   0.0144         642.55042     -0.044730314    0.19157303     0.032140359    9482.7531      10787.55      -596.61023      52789.492      0            
       145   0.0145         641.91205     -0.035695187    0.052791632   -0.014500951    9473.3319      10792.83      -8.6516457      52785.879      0            
       146   0.0146         635.86708     -0.035745798   -0.092662354   -0.029758695    9384.1203      10885.179      527.22282      52782.034      0            
       147   0.0147         628.12041     -0.025823724   -0.1994563     -0.0047364575   9269.7951      11005.671      766.72161      52780.131      0            
       148   0.0148         623.04684      0.020975171   -0.25026523     0.062552159    9194.9193      11085.147      555.793        52781.21       0            
       149   0.0149         621.29981      0.10922623    -0.26038289     0.15508647     9169.1367      11110.136     -13.099366      52784.953      0            
       150   0.015          621.0709       0.21528194    -0.25283521     0.23902404     9165.7584      11115.255     -671.56922      52790.165      0            
       151   0.0151         622.33553      0.3150111     -0.23126951     0.28262545     9184.4219      11100.041     -1221.2235      52795.567      0            
       152   0.0152         625.93218      0.38994557    -0.1898322      0.26599858     9237.5013      11040.217     -1553.7065      52800.275      0            
       153   0.0153         629.03443      0.42338655    -0.12762488     0.1723109      9283.2841      10993.258     -1560.2419      52803.975      0            
       154   0.0154         631.35503      0.42366615    -0.055759621    0.02606885     9317.5316      10963.433     -1313.2513      52807.12       0            
       155   0.0155         636.46786      0.41503158     0.00667465    -0.11829168     9392.9866      10885.979     -1011.3818      52810.732      0            
       156   0.0156         641.32211      0.40173598     0.044117063   -0.21298223     9464.6257      10808.886     -776.23607      52815.903      0            
       157   0.0157         639.71818      0.36849493     0.059729754   -0.24265464     9440.9549      10835.129     -618.5668       52823.36       0            
       158   0.0158         632.8864       0.32044163     0.071687402   -0.20364774     9340.1315      10942.12      -628.27097      52833.229      0            
       159   0.0159         627.66273      0.28607742     0.096978735   -0.10415239     9263.0406      11022.937     -929.67924      52844.755      0            
       160   0.016          627.95507      0.27887757     0.13560537     0.03480055     9267.355       11015.801     -1497.6116      52856.207      0            
       161   0.0161         631.41969      0.28184768     0.16817857     0.17567169     9318.4858      10964.448     -2085.6598      52865.184      0            
       162   0.0162         634.93675      0.28005812     0.17553665     0.27516004     9370.3905      10914.868     -2435.8494      52869.405      0            
       163   0.0163         638.59984      0.27152544     0.15200901     0.29189142     9424.4504      10858.864     -2384.7529      52867.55       0            
       164   0.0164         641.59123      0.2552592      0.098474096    0.20906124     9468.5973      10812.671     -1875.9818      52859.874      0            
       165   0.0165         642.71457      0.22524185     0.026561694    0.0594285      9485.1756      10800.974     -1037.4401      52848.38       0            
       166   0.0166         644.62761      0.18086454    -0.044716492   -0.09238679     9513.4081      10777.201     -145.87086      52836.17       0            
       167   0.0167         647.25249      0.12411655    -0.10996869    -0.19354567     9552.1461      10733.227      597.99268      52826.281      0            
       168   0.0168         645.28601      0.048646288   -0.17811449    -0.23318366     9523.1248      10763.122      1208.8395      52820.901      0            
       169   0.0169         637.63929     -0.035239816   -0.24670746    -0.221869       9410.2747      10885.387      1679.3876      52821.366      0            
       170   0.017          628.74876     -0.091080307   -0.29704881    -0.17146011     9279.0682      11020.188      1865.2974      52828.299      0            
       171   0.0171         622.64476     -0.096659282   -0.32035792    -0.098348222    9188.9854      11108.362      1717.8847      52841.537      0            
       172   0.0172         619.9725      -0.060898365   -0.31712026    -0.029786074    9149.5482      11147.871      1359.349       52860.255      0            
       173   0.0173         619.87167     -0.0034565283  -0.29053867     0.0058065065   9148.0603      11147.957      960.62896      52883.351      0            
       174   0.0174         620.97582      0.052274247   -0.23992471    -0.011617429    9164.3553      11130.499      664.2263       52909.878      0            
       175   0.0175         621.49728      0.08483492    -0.16074107    -0.075883601    9172.051       11122.817      505.96584      52939.302      0            
       176   0.0176         621.59289      0.083768219   -0.052964687   -0.15269357     9173.4621      11124.3        406.30013      52971.345      0            
       177   0.0177         624.51507      0.068626157    0.075614642   -0.20551323     9216.5874      11084.685      204.24144      53005.511      0            
       178   0.0178         631.85484      0.068344561    0.19832745    -0.21308694     9324.9078      10971.196     -178.61692      53040.704      0            
       179   0.0179         638.19718      0.086827853    0.27355665    -0.17227426     9418.5079      10871.609     -627.03415      53075.312      0            
       180   0.018          638.61986      0.10250429     0.27970736    -0.092888053    9424.7459      10869.324     -964.41199      53107.756      0            
       181   0.0181         634.65257      0.10486639     0.23629786     0.0086515771   9366.1966      10933.562     -1166.0527      53136.913      0            
       182   0.0182         630.9347       0.099674007    0.18024661     0.10805249     9311.3284      10990.029     -1293.2437      53162.069      0            
       183   0.0183         630.55531      0.093271047    0.13614298     0.18042413     9305.7293      10996.614     -1366.1272      53182.733      0            
       184   0.0184         632.71407      0.08984472     0.10457549     0.2144518      9337.5883      10964.891     -1362.9067      53198.638      0            
       185   0.0185         634.57246      0.085350665    0.072972542    0.20377468     9365.0144      10934.806     -1206.993       53209.879      0            
       186   0.0186         633.25084      0.07464362     0.027697902    0.14370832     9345.5099      10952.045     -820.16613      53217.163      0            
       187   0.0187         628.46232      0.051957003   -0.0302987      0.046999567    9274.841       11028.443     -228.85957      53222.042      0            
       188   0.0188         623.81303      0.02160642    -0.078114592   -0.047195037    9206.2268      11103.589      345.67736      53226.705      0            
       189   0.0189         623.12933     -0.0089655972  -0.093449948   -0.10225785     9196.1367      11110.581      682.24466      53233.11       0            
       190   0.019          624.77927     -0.044432117   -0.082875593   -0.10863585     9220.4865      11079.683      786.47854      53242.177      0            
       191   0.0191         624.72808     -0.10058344    -0.067608535   -0.079126062    9219.731       11082.476      824.39344      53253.785      0            
       192   0.0192         622.41133     -0.1739121     -0.059080361   -0.028426165    9185.5405      11120.046      871.39541      53267.254      0            
       193   0.0193         619.69241     -0.235102      -0.051355267    0.020595212    9145.4148      11164.773      886.20684      53281.725      0            
       194   0.0194         618.86592     -0.25137623    -0.035638311    0.053485756    9133.2174      11177.647      778.42929      53296.395      0            
       195   0.0195         620.85044     -0.21464356    -0.010909943    0.061630287    9162.5049      11148.464      546.41073      53310.591      0            
       196   0.0196         624.61284     -0.13838872     0.012878365    0.043136075    9218.0304      11090.423      274.58095      53323.872      0            
       197   0.0197         626.98633     -0.04759132     0.021865726   -0.0019889103   9253.0583      11054.52       92.381679      53336.19       0            
[...]
     23906   2.3906         1129.0136      0.2747646      0.077283162    0.090702962    16661.972      20238.679     -1475.8357      107928.83      0            
     23907   2.3907         1128.8207      0.31106763     0.11525305     0.1198958      16659.125      20237.625     -1820.7216      107936.01      0            
     23908   2.3908         1128.0599      0.3391141      0.12889796     0.16433063     16647.897      20246.916     -2107.809       107929.83      0            
     23909   2.3909         1124.6505      0.35157161     0.12628802     0.19829242     16597.581      20307.27      -2253.8402      107907.38      0            
     23910   2.391          1123.7072      0.34175991     0.12896202     0.20646921     16583.66       20319.347     -2257.3038      107867.37      0            
     23911   2.3911         1125.3745      0.30658057     0.13463524     0.18796899     16608.266      20289.86      -2097.2827      107809.7       0            
     23912   2.3912         1127.8282      0.25449668     0.12292904     0.14594304     16644.477      20255.348     -1744.5625      107735.68      0            
     23913   2.3913         1131.3748      0.19834277     0.081005949    0.088810281    16696.819      20196.751     -1227.1967      107648.88      0            
     23914   2.3914         1133.0282      0.14680698     0.015365257    0.02118211     16721.22       20170.362     -611.18117      107555.41      0            
     23915   2.3915         1133.685       0.10662859    -0.041323501   -0.060784787    16730.913      20165.594     -15.067656      107463.09      0            
     23916   2.3916         1137.3854      0.08298287    -0.0539808     -0.160235       16785.522      20106.887      437.44311      107379.73      0            
     23917   2.3917         1141.4553      0.071153358   -0.023049737   -0.25814249     16845.587      20048.036      700.12955      107311.34      0            
     23918   2.3918         1144.3859      0.061886288    0.020818311   -0.31272488     16888.837      20011.962      766.73428      107261.13      0            
     23919   2.3919         1147.3699      0.055920566    0.047212481   -0.30241288     16932.874      19962.926      664.2661       107229.03      0            
     23920   2.392          1147.9582      0.055393217    0.048545766   -0.24137449     16941.556      19958.481      458.11834      107212.36      0            
     23921   2.3921         1148.8196      0.054317028    0.040590635   -0.14750175     16954.269      19948.41       175.31363      107207.11      0            
     23922   2.3922         1151.3902      0.047589943    0.025996277   -0.031866691    16992.206      19901.955     -139.06509      107208.11      0            
     23923   2.3923         1150.6236      0.03755537    -0.0025369666   0.085471754    16980.893      19917.26      -401.63386      107209.53      0            
     23924   2.3924         1147.6782      0.033970646   -0.038842381    0.17841979     16937.424      19964.464     -578.49353      107206.43      0            
     23925   2.3925         1146.1415      0.044552264   -0.069102609    0.23038239     16914.746      19984.84      -686.10682      107195.85      0            
     23926   2.3926         1145.2531      0.072533037   -0.086827117    0.23936563     16901.634      20000.338     -750.23849      107176.87      0            
     23927   2.3927         1144.1151      0.11773484    -0.085653611    0.21323996     16884.84       20021.248     -817.73729      107150.29      0            
     23928   2.3928         1143.2213      0.16683855    -0.061713223    0.17061368     16871.649      20032.92      -919.13002      107117.78      0            
     23929   2.3929         1141.3564      0.20391849    -0.029080956    0.13347192     16844.126      20061.464     -1027.6982      107080.58      0            
     23930   2.393          1137.9888      0.22545109    -0.0086384709   0.11319067     16794.428      20111.657     -1100.011       107039.11      0            
     23931   2.3931         1133.6381      0.23580039    -0.0039490194   0.10436919     16730.22       20175.906     -1120.7352      106993.53      0            
     23932   2.3932         1131.2953      0.23958357    -0.0041772279   0.10106572     16695.645      20220.268     -1121.5735      106944.21      0            
     23933   2.3933         1135.8044      0.23959934    -0.0014944787   0.1055485      16762.191      20148.308     -1145.5112      106891.51      0            
     23934   2.3934         1143.1189      0.23527971    -0.0091223472   0.10511683     16870.138      20031.79      -1104.2473      106835.19      0            
     23935   2.3935         1146.3452      0.22876831    -0.03599526     0.076301365    16917.751      19987.091     -896.91472      106775.86      0            
     23936   2.3936         1145.9236      0.22145177    -0.069615935    0.016443779    16911.53       19997.796     -560.93206      106716.73      0            
     23937   2.3937         1144.2376      0.2111818     -0.084530155   -0.061329246    16886.647      20025.048     -217.74132      106662.97      0            
     23938   2.3938         1142.4591      0.19387593    -0.061238423   -0.14756015     16860.4        20049.846      49.74214       106619.48      0            
     23939   2.3939         1140.5855      0.16648106     0.0016044334  -0.23692854     16832.75       20076.686      229.47683      106589.28      0            
     23940   2.394          1138.0461      0.13273999     0.082536813   -0.31431228     16795.274      20117.144      330.11826      106573.3       0            
     23941   2.3941         1135.0121      0.098909096    0.1476308     -0.35398728     16750.499      20161.712      358.15796      106570.76      0            
     23942   2.3942         1131.5933      0.069707255    0.16593315    -0.34582432     16700.044      20210.704      367.2797       106579.75      0            
     23943   2.3943         1126.1591      0.05313999     0.12196995    -0.29573789     16619.845      20294.779      402.09314      106598.39      0            
     23944   2.3944         1121.9745      0.056187189    0.025735858   -0.20499614     16558.089      20365.268      410.24364      106625.98      0            
     23945   2.3945         1125.3097      0.075779584   -0.089413831   -0.080869686    16607.31       20307.237      315.01311      106662.5       0            
     23946   2.3946         1131.3887      0.1016743     -0.18588986     0.03921602     16697.023      20212.166      149.99846      106707.09      0            
     23947   2.3947         1135.0023      0.12246972    -0.23644892     0.11619688     16750.354      20161.456     -7.392262       106758.12      0            
     23948   2.3948         1136.6526      0.13148232    -0.23076083     0.14643754     16774.708      20141.762     -157.19676      106813.87      0            
     23949   2.3949         1139.4633      0.12847196    -0.17266881     0.14980489     16816.188      20102.088     -352.02682      106872.2       0            
     23950   2.395          1144.7792      0.11773404    -0.078975835    0.13946051     16894.641      20015.858     -594.06237      106929.61      0            
     23951   2.3951         1147.964       0.096751611    0.020697827    0.11740464     16941.641      19966.676     -782.84693      106981.57      0            
     23952   2.3952         1147.6839      0.063261827    0.093873654    0.096934662    16937.508      19976.502     -846.90048      107024.02      0            
     23953   2.3953         1147.806       0.02883554     0.12331723     0.089329631    16939.309      19975.277     -804.94132      107054.42      0            
     23954   2.3954         1147.3118      0.0066549248   0.10194143     0.092118449    16932.016      19978.149     -669.04936      107072.05      0            
     23955   2.3955         1142.1741     -0.0072031886   0.030044082    0.10786239     16856.194      20059.235     -435.6776       107078.41      0            
     23956   2.3956         1136.8565     -0.024802066   -0.065654404    0.14376106     16777.718      20148.438     -177.68198      107077.05      0            
     23957   2.3957         1137.8474     -0.04409132    -0.14059805     0.1843424      16792.341      20128.605      1.1565706      107071.55      0            
     23958   2.3958         1141.8302     -0.054054245   -0.17068044     0.18901967     16851.119      20064.117      119.05003      107063.96      0            
     23959   2.3959         1143.0337     -0.044628376   -0.16006705     0.13475694     16868.88       20042.935      233.1283       107055.77      0            
     23960   2.396          1141.1156     -0.012943117   -0.12176548     0.033417092    16840.574      20078.89       337.63836      107049.4       0            
     23961   2.3961         1142.2113      0.037000442   -0.061390518   -0.08234127     16856.744      20065.818      355.77115      107048.29      0            
     23962   2.3962         1147.6864      0.096808216    0.011050427   -0.19150469     16937.546      19976.763      278.82016      107055.3       0            
     23963   2.3963         1151.0375      0.16059947     0.073681655   -0.28493698     16987          19927.275      168.85285      107072.15      0            
     23964   2.3964         1151.1472      0.22204523     0.10601118    -0.33902115     16988.619      19928.889      36.549119      107100.16      0            
     23965   2.3965         1149.8982      0.26265714     0.099629189   -0.3262561      16970.187      19946.415     -120.10077      107140.13      0            
     23966   2.3966         1145.2102      0.26594207     0.055042335   -0.24683222     16901.001      20011.168     -247.17395      107191.28      0            
     23967   2.3967         1136.2687      0.23566217    -0.006870752   -0.13422762     16769.042      20149.081     -315.21266      107251.3       0            
     23968   2.3968         1130.0097      0.19370936    -0.045599098   -0.022306226    16676.673      20244.919     -419.34679      107317.04      0            
     23969   2.3969         1131.3571      0.16162733    -0.045006072    0.068049846    16696.557      20219.087     -615.57034      107384.24      0            
     23970   2.397          1133.9635      0.14810548    -0.021751716    0.12041175     16735.022      20173.404     -822.55172      107447.77      0            
     23971   2.3971         1132.3167      0.14542066     0.01261016     0.1252174      16710.719      20204.561     -944.16071      107503.55      0            
     23972   2.3972         1129.5739      0.14683815     0.063520468    0.09904998     16670.242      20249.422     -1031.362       107549.69      0            
     23973   2.3973         1128.849       0.150071       0.1269068      0.06548441     16659.543      20256.773     -1141.5407      107585.17      0            
     23974   2.3974         1128.6235      0.14436538     0.18356762     0.037313473    16656.215      20255.136     -1217.4882      107608.73      0            
     23975   2.3975         1126.965       0.11651407     0.21807999     0.02019213     16631.739      20285.322     -1182.6206      107619.23      0            
     23976   2.3976         1127.1473      0.076290186    0.21702894     0.020498421    16634.43       20282.649     -1046.0585      107616.16      0            
     23977   2.3977         1129.8584      0.046497177    0.15635919     0.03920828     16674.439      20233.178     -806.88215      107600.05      0            
     23978   2.3978         1129.3335      0.033847358    0.030220225    0.063548401    16666.693      20239.412     -425.38661      107573.71      0            
     23979   2.3979         1124.8481      0.035291557   -0.11890004     0.075558253    16600.498      20317.369      26.834101      107543.19      0            
     23980   2.398          1124.3009      0.056434913   -0.23213902     0.066794267    16592.423      20327.641      363.03281      107516.28      0            
     23981   2.3981         1129.313       0.099642527   -0.28436941     0.042085494    16666.39       20243.768      475.4713       107499.66      0            
     23982   2.3982         1131.8857      0.15049008    -0.27955509     0.011861812    16704.359      20206.222      390.67733      107497.26      0            
     23983   2.3983         1130.0987      0.19414465    -0.22397836    -0.015314714    16677.986      20240.151      150.49476      107510         0            
     23984   2.3984         1127.4598      0.22160344    -0.12507429    -0.034622593    16639.042      20277.09      -206.35521      107535.81      0            
     23985   2.3985         1124.7929      0.22038326    -0.0032413734  -0.042188945    16599.682      20320.227     -583.17647      107569.84      0            
     23986   2.3986         1123.8457      0.19301283     0.11785118    -0.039848337    16585.704      20333.789     -903.38559      107605.42      0            
     23987   2.3987         1124.7775      0.15451788     0.21031049    -0.037383004    16599.456      20318.637     -1091.4846      107635.6       0            
     23988   2.3988         1125.5199      0.11395456     0.24386603    -0.040330327    16610.412      20304.925     -1058.3009      107655.25      0            
     23989   2.3989         1123.7419      0.074164787    0.20399252    -0.044494941    16584.173      20332.951     -778.87456      107662.98      0            
     23990   2.399          1121.3023      0.04193279     0.11342959    -0.046616367    16548.168      20374.875     -362.48671      107661.64      0            
     23991   2.3991         1123.2319      0.020203329    0.026943959   -0.037846164    16576.646      20351.927     -31.003745      107656.71      0            
     23992   2.3992         1131.2246      0.011159571   -0.020222843   -0.010057145    16694.602      20223.506      63.734723      107652.65      0            
     23993   2.3993         1138.2223      0.017174366   -0.035101701    0.027256066    16797.873      20111.751     -31.09577       107650.53      0            
     23994   2.3994         1138.0386      0.040251994   -0.033518366    0.059660167    16795.163      20120.516     -221.31265      107649.03      0            
     23995   2.3995         1133.328       0.079277774   -0.019403686    0.087288912    16725.644      20193.696     -490.54333      107646.21      0            
     23996   2.3996         1127.9196      0.12305943     0.005139452    0.11125829     16645.827      20275.283     -798.19056      107639.77      0            
     23997   2.3997         1123.4273      0.16007307     0.0307687      0.12247352     16579.529      20347.721     -1044.3843      107627.09      0            
     23998   2.3998         1122.2574      0.18364478     0.049253885    0.10962561     16562.264      20368.477     -1141.7476      107606.28      0            
     23999   2.3999         1126.2026      0.19675162     0.051391904    0.070529223    16620.488      20307.894     -1062.2425      107577.25      0            
     24000   2.4            1133.3626      0.20569936     0.01863814     0.014204469    16726.154      20196.268     -795.1399       107542.31      0            
     24001   2.4001         1137.5833      0.21116295    -0.053287377   -0.039641377    16788.443      20136.6       -394.11398      107506.61      0            
     24002   2.4002         1139.2151      0.20866274    -0.12985803    -0.069160974    16812.526      20119.414     -32.145793      107477.21      0            
     24003   2.4003         1143.2749      0.2043823     -0.16041182    -0.069918935    16872.441      20058.525      86.494839      107459.87      0            
     24004   2.4004         1147.8017      0.21752904    -0.13019447    -0.058542975    16939.246      19984.456     -95.971965      107456         0            
     24005   2.4005         1147.6941      0.25671901    -0.059896874   -0.053080412    16937.658      19989.887     -479.13907      107462.89      0            
     24006   2.4006         1144.9451      0.31158306     0.032707456   -0.051595577    16897.089      20038.011     -975.64979      107476.04      0            
     24007   2.4007         1144.1731      0.36294519     0.1340837     -0.047465625    16885.696      20047.281     -1498.5442      107489.99      0            
     24008   2.4008         1143.9382      0.3893089      0.21938748    -0.040843981    16882.229      20047.626     -1892.8414      107498.83      0            
     24009   2.4009         1142.0617      0.37374159     0.27021616    -0.038553926    16854.535      20076.738     -2018.0127      107497.53      0            
     24010   2.401          1139.224       0.32194612     0.28346917    -0.051948249    16812.657      20119.203     -1844.8902      107483.37      0            
     24011   2.4011         1137.3386      0.25172303     0.25068512    -0.077732468    16784.832      20148.137     -1415.5856      107456.69      0            
     24012   2.4012         1136.792       0.17909471     0.16392132    -0.09975873     16776.766      20149.929     -810.85764      107421.11      0            
     24013   2.4013         1134.413       0.11416091     0.035987516   -0.10984306     16741.656      20185.386     -134.35121      107383         0            
     24014   2.4014         1132.573       0.064676992   -0.084457025   -0.10271865     16714.502      20222.936      408.32893      107350.17      0            
     24015   2.4015         1138.0582      0.036604964   -0.14837862    -0.072445235    16795.452      20136.935      614.06296      107328.85      0            
     24016   2.4016         1146.6503      0.038073803   -0.15990048    -0.026833572    16922.254      19999.012      495.53416      107320.59      0            
     24017   2.4017         1148.8678      0.064998219   -0.15506127     0.017291818    16954.979      19965.615      242.57077      107323.1       0            
     24018   2.4018         1142.5964      0.1011033     -0.1470811      0.056338075    16862.427      20069.177     -34.534274      107333.33      0            
     24019   2.4019         1135.9502      0.12967798    -0.12869044     0.097829119    16764.342      20171.251     -329.38887      107348.41      0            
     24020   2.402          1133.9002      0.14058269    -0.10472432     0.14058248     16734.089      20199.113     -588.13614      107364.86      0            
     24021   2.4021         1134.7207      0.13150136    -0.089695997    0.16678287     16746.198      20186.89      -695.2941       107378.92      0            
     24022   2.4022         1137.5504      0.11085989    -0.093675177    0.16156128     16787.957      20146.557     -595.81995      107388.36      0            
     24023   2.4023         1141.2611      0.087104491   -0.1207809      0.12859254     16842.721      20084.783     -316.38709      107393.84      0            
     24024   2.4024         1141.2447      0.061826273   -0.16369275     0.076123057    16842.479      20083.629      85.811392      107398.84      0            
     24025   2.4025         1137.0892      0.04163884    -0.18920321     0.01721076     16781.151      20154.436      434.51203      107408.68      0            
     24026   2.4026         1137.2389      0.043233205   -0.1599284     -0.024564689    16783.361      20153.455      470.86627      107427.96      0            
     24027   2.4027         1143.0939      0.081326161   -0.07985926    -0.034418759    16869.769      20053.717      109.83953      107457.08      0            
     24028   2.4028         1143.1752      0.15634001     0.006809239   -0