LAMMPS (22 Dec 2022)
WARNING: Using I/O redirection is unreliable with parallel runs. Better to use the -in switch to read input files. (../lammps.cpp:531)
Reading data file ...
  orthogonal box = (5.3835842 5.3835842 5.3835842) to (37.478536 37.478536 37.478536)
  1 by 2 by 3 MPI processor grid
  reading atoms ...
  2996 atoms
  reading velocities ...
  2996 velocities
  scanning bonds ...
  5 = max bonds/atom
  scanning angles ...
  6 = max angles/atom
  scanning dihedrals ...
  14 = max dihedrals/atom
  scanning impropers ...
  4 = max impropers/atom
  reading bonds ...
  3131 bonds
  reading angles ...
  5396 angles
  reading dihedrals ...
  7142 dihedrals
  reading impropers ...
  2556 impropers
Finding 1-2 1-3 1-4 neighbors ...
  special bond factors lj:    0        0        0       
  special bond factors coul:  0        0        0       
     4 = max # of 1-2 neighbors
     7 = max # of 1-3 neighbors
    15 = max # of 1-4 neighbors
    17 = max # of special neighbors
  special bonds CPU = 0.001 seconds
  read_data CPU = 0.049 seconds
PPPM initialization ...
  using 12-bit tables for long-range coulomb (../kspace.cpp:342)
  G vector (1/distance) = 0.19677283
  grid = 8 8 8
  stencil order = 5
  estimated absolute RMS force accuracy = 0.026522975
  estimated relative force accuracy = 7.987315e-05
  using double precision KISS FFT
  3d grid and FFT values/proc = 1053 128
Generated 36 of 36 mixed pair_coeff terms from sixthpower/geometric mixing rule
Neighbor list info ...
  update: every = 1 steps, delay = 0 steps, check = yes
  max neighbors/atom: 2000, page size: 100000
  master list distance cutoff = 12
  ghost atom cutoff = 12
  binsize = 6, bins = 6 6 6
  1 neighbor lists, perpetual/occasional/extra = 1 0 0
  (1) pair lj/class2/coul/long, perpetual
      attributes: half, newton on
      pair build: half/bin/newton
      stencil: half/bin/3d
      bin: standard
Setting up cg style minimization ...
  Unit style    : real
  Current step  : 0
WARNING: Inconsistent image flags (../domain.cpp:815)
Per MPI rank memory allocation (min/avg/max) = 17.25 | 17.25 | 17.26 Mbytes
   Step          Temp          E_pair         E_mol          TotEng         Press     
         0   492.84444     -2027.0191      17840.758      20213.62       4201.3622    
       444   492.84444     -2613.5187      13942.352      15728.715      4044.559     
Loop time of 5.10248 on 6 procs for 444 steps with 2996 atoms

99.0% CPU use with 6 MPI tasks x no OpenMP threads

Minimization stats:
  Stopping criterion = energy tolerance
  Energy initial, next-to-last, final = 
      15813.7384684871   11328.9193353187   11328.8329850059
  Force two-norm initial, final = 2360.5253 18.769481
  Force max component initial, final = 132.58837 1.6220871
  Final line search alpha, max atom move = 0.0077922296 0.012639675
  Iterations, force evaluations = 444 888

MPI task timing breakdown:
Section |  min time  |  avg time  |  max time  |%varavg| %total
---------------------------------------------------------------
Pair    | 2.4578     | 2.6225     | 2.8615     |   8.2 | 51.40
Bond    | 1.0781     | 1.3433     | 1.507      |  12.2 | 26.33
Kspace  | 0.56741    | 0.90321    | 1.1575     |  20.6 | 17.70
Neigh   | 0.039777   | 0.039998   | 0.040217   |   0.1 |  0.78
Comm    | 0.14765    | 0.15079    | 0.1545     |   0.7 |  2.96
Output  | 0          | 0          | 0          |   0.0 |  0.00
Modify  | 0          | 0          | 0          |   0.0 |  0.00
Other   |            | 0.04267    |            |       |  0.84

Nlocal:        499.333 ave         517 max         486 min
Histogram: 1 2 0 0 0 1 0 0 1 1
Nghost:        6511.83 ave        6593 max        6469 min
Histogram: 1 2 1 0 0 1 0 0 0 1
Neighs:         163540 ave      175851 max      153002 min
Histogram: 1 0 0 1 2 0 1 0 0 1

Total # of neighbors = 981240
Ave neighs/atom = 327.51669
Ave special neighs/atom = 9.2870494
Neighbor list builds = 10
Dangerous builds = 0
PPPM initialization ...
  using 12-bit tables for long-range coulomb (../kspace.cpp:342)
  G vector (1/distance) = 0.19677283
  grid = 8 8 8
  stencil order = 5
  estimated absolute RMS force accuracy = 0.026522975
  estimated relative force accuracy = 7.987315e-05
  using double precision KISS FFT
  3d grid and FFT values/proc = 1053 128
Generated 36 of 36 mixed pair_coeff terms from sixthpower/geometric mixing rule
Setting up Verlet run ...
  Unit style    : real
  Current step  : 444
  Time step     : 1
WARNING: Inconsistent image flags (../domain.cpp:815)
Per MPI rank memory allocation (min/avg/max) = 16.13 | 16.13 | 16.13 Mbytes
   Step          Temp          E_pair         E_mol          TotEng         Press          Volume    
       444   492.84444     -2613.5187      13942.352      15728.715      4044.559       33060.56     
     50444   591.69518     -1501.5305      18970.052      22750.895      505.68346      48226.76     
Loop time of 193.842 on 6 procs for 50000 steps with 2996 atoms

Performance: 22.286 ns/day, 1.077 hours/ns, 257.942 timesteps/s, 772.795 katom-step/s
98.6% CPU use with 6 MPI tasks x no OpenMP threads

MPI task timing breakdown:
Section |  min time  |  avg time  |  max time  |%varavg| %total
---------------------------------------------------------------
Pair    | 64.479     | 69.875     | 75.157     |  46.5 | 36.05
Bond    | 42.513     | 58.688     | 67.069     | 100.4 | 30.28
Kspace  | 32.326     | 45.45      | 67.032     | 163.3 | 23.45
Neigh   | 10.077     | 10.089     | 10.111     |   0.4 |  5.20
Comm    | 6.229      | 6.4909     | 6.7591     |   6.5 |  3.35
Output  | 2.5929e-05 | 6.0527e-05 | 0.00023319 |   0.0 |  0.00
Modify  | 1.7407     | 1.8298     | 1.9908     |   7.0 |  0.94
Other   |            | 1.419      |            |       |  0.73

Nlocal:        499.333 ave         537 max         460 min
Histogram: 1 1 1 0 0 0 0 0 1 2
Nghost:        5313.33 ave        5382 max        5242 min
Histogram: 1 0 1 1 0 1 0 0 0 2
Neighs:         112803 ave      126391 max       98027 min
Histogram: 1 1 0 1 0 0 1 0 1 1

Total # of neighbors = 676816
Ave neighs/atom = 225.90654
Ave special neighs/atom = 9.2870494
Neighbor list builds = 3344
Dangerous builds = 0
PPPM initialization ...
  using 12-bit tables for long-range coulomb (../kspace.cpp:342)
  G vector (1/distance) = 0.19599685
  grid = 9 9 9
  stencil order = 5
  estimated absolute RMS force accuracy = 0.022642673
  estimated relative force accuracy = 6.8187738e-05
  using double precision KISS FFT
  3d grid and FFT values/proc = 1120 162
Generated 36 of 36 mixed pair_coeff terms from sixthpower/geometric mixing rule
Setting up Verlet run ...
  Unit style    : real
  Current step  : 0
  Time step     : 0.25
WARNING: Inconsistent image flags (../domain.cpp:815)
Per MPI rank memory allocation (min/avg/max) = 17.4 | 17.41 | 17.41 Mbytes
   Step          Temp          PotEng         E_vdwl         E_coul         E_bond        E_angle        E_dihed        E_impro        Density         Volume    
         0   591.69518      17470.339     -1173.3299      1214.2585      2442.7403      16219.379      243.99446      63.937942      0.73475979     48226.76     
       100   616.79574      17241.574     -1147.3379      1207.3928      2311.2893      16194.56       146.51619      70.353732      0.73482832     48222.262    
       200   601.52696      17368.94      -1121.9102      1208.1298      2335.7145      16225.767      190.32152      71.007271      0.7348901      48218.209    
       300   611.03511      17267.749     -1081.1181      1217.2853      2250.6198      16093.526      265.44861      63.938387      0.73485426     48220.56     
       400   600.60668      17334.668     -1133.4644      1221.0011      2324.5276      16208.046      189.8806       67.322037      0.73485301     48220.642    
       500   611.2683       17200.237     -1173.6249      1214.9003      2231.165       16227.684      186.92928      54.754438      0.73471173     48229.914    
       600   599.76739      17252.511     -1154.9428      1204.7545      2331.7662      16211.191      149.46062      53.704826      0.73446898     48245.855    
       700   591.16472      17273.839     -1141.0462      1213.3452      2302.4469      16206.875      166.69393      68.352921      0.73417028     48265.484    
       800   600.141        17146.158     -1138.4315      1209.4908      2201.1302      16167.689      188.18561      63.413095      0.73389182     48283.798    
       900   583.07067      17265.461     -1159.3921      1213.3211      2323.183       16199.721      172.15787      60.6197        0.73376336     48292.25     
      1000   589.5168       17192.428     -1193.0172      1224.0615      2253.7631      16174.683      210.41144      66.244621      0.73349407     48309.98     
      1100   591.92126      17170.048     -1197.0549      1213.2565      2338.4014      16162.289      150.96962      46.78927       0.73332293     48321.255    
      1200   583.87432      17249.394     -1157.6246      1215.2773      2462.7987      16118.531      103.25241      51.651229      0.73335134     48319.382    
      1300   585.16751      17250.018     -1095.834       1214.7961      2328.1343      16116.338      172.16984      59.260091      0.73340396     48315.916    
      1400   596.42432      17168.926     -1100.208       1211.2601      2320.7764      16096.438      131.27875      54.199392      0.73343357     48313.966    
      1500   602.26347      17138.208     -1115.9215      1216.2605      2260.1273      16117.463      133.18752      70.778561      0.73332524     48321.102    
      1600   593.20923      17240.629     -1135.933       1221.8898      2281.8836      16159.302      174.18806      82.699243      0.73317927     48330.723    
      1700   591.18569      17283.542     -1136.9441      1216.3641      2348.1462      16126.39       221.3224       50.009902      0.73303283     48340.378    
      1800   583.59047      17377.68      -1124.2669      1212.782       2332.8042      16178.65       250.0205       70.963168      0.73308356     48337.033    
      1900   605.06958      17215.715     -1149.3466      1209.4927      2316.9684      16060.906      270.02708      50.330856      0.73303337     48340.342    
      2000   601.66237      17270.276     -1125.3738      1211.1468      2251.2882      16095.315      318.81655      62.083347      0.73274649     48359.268    
      2100   596.20078      17335.275     -1112.3171      1213.2461      2303.5138      16119.363      288.73682      64.910901      0.73234581     48385.726    
      2200   602.90441      17286.867     -1162.124       1204.8991      2252.96        16115.775      359.88667      57.167987      0.73184411     48418.896    
      2300   601.33633      17306.749     -1182.9849      1215.9693      2323.2305      16196.061      248.19194      47.50774       0.73131824     48453.713    
      2400   605.21295      17273.213     -1168.8138      1219.5085      2369.962       16064.689      270.10106      57.128919      0.73073619     48492.307    
      2500   598.42936      17328.082     -1143.8461      1220.733       2318.9682      16085.08       327.76144      58.005749      0.73014366     48531.66     
      2600   595.70694      17345.29      -1130.3856      1215.4187      2375.742       16126.425      227.92213      69.811737      0.72955991     48570.492    
      2700   597.50356      17316.502     -1120.2282      1218.9038      2357.7583      16147.298      178.2516       73.339058      0.72896015     48610.454    
      2800   605.66033      17229.616     -1099.9173      1215.3972      2221.3799      16154.384      216.84944      61.982645      0.72841511     48646.828    
      2900   588.40572      17371.08      -1109.6847      1212.8529      2417.9103      16011.715      324.00997      55.11319       0.72792508     48679.576    
      3000   601.12476      17236.612     -1128.329       1217.9956      2247.3227      16046.94       350.40419      43.873688      0.72731845     48720.178    
      3100   597.22194      17235.549     -1123.1266      1214.3357      2318.2361      16078.533      237.6829       51.697562      0.7265424      48772.218    
      3200   591.76648      17234.158     -1106.8464      1206.1031      2381.8914      16122.523      111.84424      61.556294      0.72571595     48827.759    
      3300   589.57857      17202.666     -1106.3717      1216.5464      2200.9779      16103.435      254.36872      76.709662      0.7246883      48897        
      3400   583.65781      17214.733     -1103.4428      1207.1027      2252.0991      16069.519      258.85964      73.014598      0.72371516     48962.749    
      3500   576.55335      17255.763     -1114.4375      1203.5878      2252.8837      16122.252      277.40636      55.487847      0.72271532     49030.487    
      3600   567.16818      17335.58      -1132.7798      1204.4643      2245.3272      16132.189      365.46671      64.200007      0.72175381     49095.805    
      3700   588.77         17161.719     -1119.3715      1200.447       2243.9395      16099.325      214.21896      65.869696      0.7208362      49158.303    
      3800   586.44485      17223.722     -1126.8939      1205.1061      2231.2441      16100.917      304.13551      51.578102      0.71978714     49229.949    
      3900   584.2047       17297.603     -1130.5921      1208.1087      2232.4961      16125.249      330.91297      73.248558      0.71867561     49306.089    
      4000   600.20688      17210.254     -1154.6443      1215.3894      2310.5244      16092.735      216.52833      71.524419      0.71754275     49383.934    
      4100   584.24264      17396.616     -1129.9066      1215.1977      2345.6653      16078.246      355.73814      74.065511      0.71640885     49462.097    
      4200   596.08615      17327.333     -1112.9205      1219.136       2284.7875      16086.187      319.09064      73.038291      0.71541473     49530.828    
      4300   605.01182      17273.805     -1109.1664      1223.7722      2240.6798      16102.714      298.09393      59.989797      0.71454011     49591.456    
      4400   592.07995      17410.445     -1093.6828      1215.093       2258.5246      16099.568      397.72115      75.183221      0.71371852     49648.542    
      4500   600.04042      17359.25      -1088.7347      1214.428       2296.5949      16186.54       215.75215      77.223989      0.71289375     49705.982    
      4600   608.78337      17297.821     -1106.7954      1217.6576      2358.2202      16097.552      203.70051      69.349166      0.71205725     49764.375    
      4700   595.97504      17425.23      -1136.1685      1225.2435      2346.5007      16268.842      191.11789      71.336078      0.711332       49815.113    
      4800   599.77163      17401.739     -1125.1248      1223.5751      2238.5054      16271.182      281.94976      52.89986       0.71067151     49861.411    
      4900   607.36299      17339.878     -1077.5516      1226.2971      2209.5529      16164.633      297.04789      60.710511      0.71013389     49899.159    
      5000   616.14094      17261.274     -1035.553       1221.8101      2233.2613      16087.716      215.541        77.962812      0.70958746     49937.585    
      5100   611.68372      17293.431     -1072.6746      1221.1837      2343.6339      16129.419      143.26693      68.702634      0.70899898     49979.034    
      5200   598.64949      17390.689     -1118.3199      1224.0557      2235.4052      16277.596      251.37477      60.452958      0.70836933     50023.459    
      5300   600.44142      17344.567     -1142.6589      1223.627       2271.8388      16114.039      347.04495      71.770485      0.7078803      50058.017    
      5400   595.36904      17348.962     -1112.7668      1222.6679      2349.8904      16147.391      206.39415      75.238333      0.70775139     50067.135    
      5500   609.14049      17173.998     -1087.8968      1212.3154      2246.5983      16057.24       212.2533       76.769611      0.70774494     50067.591    
      5600   589.70928      17297.286     -1113.2573      1212.586       2274.3672      16048.651      345.4972       71.878725      0.70774413     50067.648    
      5700   593.52787      17221.798     -1088.6701      1217.5807      2203.0005      16026.445      324.45059      81.575857      0.70784068     50060.819    
      5800   582.33025      17295.364     -1062.8519      1219.0844      2247.1454      16049.773      322.07151      61.328073      0.70792411     50054.919    
      5900   580.02443      17308.851     -1077.8556      1213.2695      2356.6035      16050.525      226.12854      82.231728      0.70805003     50046.018    
      6000   584.14252      17280.447     -1102.1396      1211.7495      2338.8674      16017.783      288.16118      67.007801      0.70807683     50044.123    
      6100   584.2622       17301.914     -1128.99        1208.0254      2339.9508      16044.262      322.53441      59.307412      0.70816421     50037.948    
      6200   595.77962      17228.262     -1101.0679      1204.6211      2263.6049      15975.752      373.47606      52.282428      0.7082894      50029.104    
      6300   588.3573       17323.762     -1062.8322      1197.1412      2361.9832      16023.029      298.48579      48.386284      0.70837052     50023.375    
      6400   601.21706      17234.183     -1090.0861      1206.2858      2326.6257      15999.74       274.12558      58.220719      0.70832003     50026.94     
      6500   599.58245      17267.872     -1080.9263      1199.1731      2243.081       16062.868      333.69953      50.923865      0.70799433     50049.954    
      6600   595.86415      17315.977     -1112.6027      1204.3957      2226.8098      16107.576      364.87135      63.552476      0.70767437     50072.584    
      6700   573.89105      17528.374     -1086.2612      1208.7237      2330.0486      16182.183      353.2564       79.014676      0.70750328     50084.692    
      6800   602.10479      17294.75      -1090.9898      1214.6538      2212.3877      16060.05       355.81456      82.192401      0.70729722     50099.284    
      6900   594.97932      17372.91      -1081.9101      1217.0517      2299.3372      16137.52       281.22171      59.641633      0.70704471     50117.176    
      7000   599.93583      17342.592     -1107.5974      1213.268       2315.9556      16159.171      245.9456       55.023833      0.70670279     50141.424    
      7100   593.26493      17412.603     -1116.0308      1217.1249      2362.1336      16196.477      220.89073      71.854167      0.70638797     50163.77     
      7200   600.38905      17358.419     -1081.3644      1224.1282      2283.8697      16174.428      253.85874      44.431695      0.70604299     50188.281    
      7300   596.22011      17401.516     -1100.1265      1226.1554      2347.7663      16238.586      147.40412      83.056744      0.70581686     50204.361    
      7400   592.30317      17438.215     -1094.3586      1229.3142      2258.5639      16225.884      276.25076      83.90259       0.70560768     50219.243    
      7500   602.27958      17353.497     -1112.089       1227.5099      2235.9982      16181.28       286.77708      74.327854      0.70535378     50237.321    
      7600   598.247        17394.327     -1106.6412      1218.9647      2341.4166      16168.8        237.27609      75.414712      0.70525987     50244.01     
      7700   601.18911      17368.628     -1093.5342      1217.9115      2288.4716      16195.024      236.88192      65.927102      0.70523272     50245.945    
      7800   606.36027      17321.03      -1102.7115      1210.0259      2350.5054      16143.133      191.41494      71.38238       0.70525152     50244.605    
      7900   594.49316      17420.007     -1094.9421      1223.1802      2300.911       16266.749      213.65244      52.73698       0.70517594     50249.99     
      8000   600.85792      17350.724     -1106.7863      1212.0574      2281.4488      16098.577      344.11962      63.832797      0.70505669     50258.489    
      8100   603.74311      17304.625     -1088.3994      1216.4672      2329.5481      16079.875      252.53447      57.313616      0.70496982     50264.682    
      8200   592.28639      17378.804     -1070.0083      1213.9663      2285.3655      16155.903      265.46146      71.289067      0.70488457     50270.762    
      8300   599.10195      17287.769     -1067.4989      1212.2907      2356.1168      16119.837      147.80816      63.308004      0.70476725     50279.13     
      8400   590.09032      17337.761     -1082.4406      1220.738       2354.581       16203.861      121.74932      62.262777      0.7045777      50292.656    
      8500   580.08527      17400.467     -1049.8116      1216.2774      2239.6534      16287.643      189.11192      61.964632      0.70435975     50308.218    
      8600   586.54723      17326.402     -1085.3984      1212.6792      2261.102       16140.521      274.65339      67.909486      0.70427184     50314.498    
      8700   587.93732      17304.616     -1078.6442      1205.9126      2264.8179      16148.232      246.07743      63.93852       0.70430989     50311.78     
      8800   593.19815      17255.426     -1090.3956      1200.2978      2277.7013      16048.537      294.12813      70.041075      0.70418805     50320.485    
      8900   590.42579      17283.786     -1089.6636      1205.2485      2353.0463      16075.795      224.78272      59.358565      0.70400215     50333.772    
      9000   599.90239      17205.91      -1095.9994      1208.8841      2272.6446      16080.332      226.86482      57.032395      0.70378364     50349.4      
      9100   592.58104      17281.382     -1103.8642      1214.9348      2238.9269      16169.256      252.11418      54.283714      0.70368928     50356.152    
      9200   595.60431      17269.423     -1102.8857      1217.5269      2370.3092      16094.291      173.80105      60.385583      0.70374139     50352.423    
      9300   594.90166      17299.008     -1081.8575      1216.2559      2328.0972      16083.604      236.90359      57.934548      0.70374763     50351.976    
      9400   603.40528      17256.907     -1081.5388      1215.2312      2337.9983      16065.941      210.9044       49.201571      0.70390903     50340.431    
      9500   597.63175      17348.337     -1056.7394      1223.5051      2358.602       16052.654      239.29573      71.786246      0.70404386     50330.79     
      9600   598.46184      17383.281     -1040.2203      1217.1051      2254.6589      16222.674      205.33413      66.79965       0.70406777     50329.081    
      9700   604.57973      17367.094     -1031.0543      1214.8482      2361.6353      16130.189      157.1193       74.94459       0.70387371     50342.957    
      9800   605.98606      17385.203     -1052.2662      1218.7413      2387.9844      16095.59       219.10666      57.357462      0.70358476     50363.632    
      9900   603.64116      17426.628     -1092.7827      1219.1003      2327.9749      16188.573      261.38909      63.329227      0.70331179     50383.18     
     10000   599.60858      17471.147     -1089.5483      1217.5187      2462.2548      16030.43       310.60373      81.26295       0.70293726     50410.024    
     10100   607.64284      17395.266     -1077.4016      1218.6035      2264.5502      16059.15       406.45371      64.219612      0.70257957     50435.688    
     10200   612.94508      17333.646     -1049.85        1213.9733      2235.9222      15998.065      402.9224       72.356348      0.70232914     50453.672    
     10300   601.12016      17410.042     -1091.6913      1215.8739      2286.5146      16106.159      360.06503      72.495661      0.70193558     50481.96     
     10400   595.45195      17410.797     -1101.3275      1220.2114      2238.5996      16193.614      322.54051      78.125247      0.70131197     50526.849    
     10500   594.47573      17351.911     -1083.405       1211.5308      2271.996       16170.498      243.10059      78.078609      0.70057631     50579.907    
     10600   590.06266      17327.854     -1069.0355      1205.9043      2238.962       16137.191      292.9194       62.065167      0.69982603     50634.133    
     10700   579.79888      17379.074     -1063.9559      1200.6604      2234.111       16128.455      334.19385      84.786083      0.69897303     50695.925    
     10800   591.38097      17254.383     -1095.542       1202.3955      2296.8301      16000.131      314.84337      77.141283      0.69793114     50771.605    
     10900   587.06428      17284.823     -1044.4488      1198.3205      2269.4805      16069.277      264.22334      69.207124      0.69674678     50857.909    
     11000   592.43612      17238.948     -1080.0097      1205.6732      2304.6601      16018.967      264.48059      64.952696      0.69542485     50954.584    
     11100   583.27978      17327.729     -1071.9424      1206.5237      2277.9406      16123.047      264.11789      68.975988      0.69405989     51054.793    
     11200   598.20753      17207.93      -1054.0834      1206.6763      2229.5029      16062.446      227.71762      75.639061      0.69269177     51155.63     
     11300   582.84697      17362.14      -1062.3826      1210.2248      2304.0918      16170.751      191.65142      87.405148      0.69135911     51254.237    
     11400   591.37706      17312.157     -1084.9182      1215.3862      2208.4092      16176.123      262.06408      73.081388      0.69004453     51351.88     
     11500   592.51591      17332.699     -1062.6672      1209.2968      2300.3279      16086.165      286.61415      52.779767      0.68881366     51443.643    
     11600   596.28269      17329.95      -1054.4412      1198.0376      2334.953       16081.997      242.10136      66.715562      0.68754356     51538.675    
     11700   588.92724      17421.416     -1049.3094      1208.0936      2326.9561      16195.503      227.48318      53.449137      0.68616589     51642.153    
     11800   597.24084      17370.407     -1059.6164      1204.0083      2281.4029      16084.701      351.51964      48.589741      0.68475996     51748.183    
     11900   610.25675      17274.282     -1067.4013      1210.4259      2277.1349      16098.793      228.60049      66.384117      0.68342708     51849.107    
     12000   596.2429       17414.381     -1039.269       1207.7618      2345.728       16117.457      257.95355      63.087282      0.68202394     51955.778    
     12100   601.97009      17375.805     -1029.9443      1214.4719      2350.5483      16083.515      228.64937      68.890849      0.68063089     52062.115    
     12200   607.37407      17338.036     -1030.7717      1213.3053      2222.548       16178.869      225.88568      67.699915      0.6793567      52159.762    
     12300   588.12957      17513.49      -1055.9827      1213.6248      2385.8556      16185.176      279.96231      43.83205       0.67810767     52255.838    
     12400   599.42318      17411.804     -1063.5131      1211.8299      2424.2717      16114.78       198.05469      64.378887      0.67701755     52339.979    
     12500   609.81542      17311.746     -1046.816       1205.6321      2274.6913      16109.819      237.76135      68.871748      0.67594022     52423.399    
     12600   591.04923      17460.695     -1033.609       1213.2156      2365.7172      16214.877      161.79506      76.389104      0.67499966     52496.447    
     12700   588.50839      17441.152     -1020.4059      1213.4704      2303.3866      16182.255      222.49045      78.389316      0.67407985     52568.081    
     12800   599.6782       17269.574     -1042.3922      1209.7933      2199.2944      16152.963      230.42825      56.708897      0.67318154     52638.229    
     12900   577.79594      17391.345     -1054.025       1221.2582      2342.4693      16201.066      150.89773      68.042909      0.67232652     52705.171    
     13000   583.41938      17290.378     -1034.4956      1213.2778      2230.5026      16090.897      265.10478      63.567598      0.6715509      52766.044    
     13100   584.1962       17257.158     -1038.5619      1207.024       2179.7944      16054.116      343.13226      52.040314      0.67081017     52824.31     
     13200   583.94689      17253.075     -1030.6639      1210.1862      2272.1876      16007.593      270.78694      62.791613      0.67011579     52879.046    
     13300   578.65402      17309.586     -1038.8073      1209.7773      2204.3042      16043.392      347.7464       85.256765      0.66953878     52924.618    
     13400   583.51351      17290.724     -1045.2592      1208.7955      2187.7124      16087.371      321.63837      72.501198      0.66901062     52966.4      
     13500   590.52512      17267.643     -1030.7041      1209.7458      2242.0196      15992.171      324.96156      72.750267      0.66853547     53004.045    
     13600   596.77815      17258.98      -1080.9305      1207.4413      2269.4442      16001.906      328.71332      76.31953       0.66813015     53036.2      
     13700   587.74595      17381.841     -1056.1845      1208.9142      2291.5085      16088.348      316.47265      76.618226      0.66785519     53058.035    
     13800   595.33633      17351.723     -1015.9114      1214.8146      2212.0583      16049.51       373.68169      61.060134      0.66752822     53084.024    
     13900   595.87217      17378.057     -1019.4419      1215.89        2230.8064      16061.391      354.34106      79.364873      0.66731104     53101.3      
     14000   590.59626      17449.646     -1002.1272      1200.599       2281.7478      16124.771      326.35058      64.479804      0.66695824     53129.389    
     14100   600.22612      17382.852     -1029.0199      1199.7144      2311.9061      16224.992      186.96127      34.161358      0.66655902     53161.21     
     14200   596.57919      17428.728     -1066.17        1215.6972      2383.2139      16246.115      120.29343      73.678531      0.66627961     53183.503    
     14300   591.59972      17484.882     -1026.5759      1211.4447      2311.1225      16182.916      271.06808      78.242823      0.66587947     53215.463    
     14400   595.90587      17456.622     -1013.5381      1215.6393      2392.0352      16067.26       267.99005      71.211366      0.66556694     53240.451    
     14500   595.32709      17468.048     -1002.2231      1208.2623      2341.4713      16097.501      277.09436      89.980536      0.66532614     53259.72     
     14600   604.71383      17389.749     -1005.9648      1213.8477      2169.2528      16121.521      358.82581      74.933979      0.66503132     53283.331    
     14700   597.41746      17458.723     -1026.7373      1216.1102      2310.3588      16189.688      241.56109      69.712986      0.66484036     53298.635    
     14800   602.58697      17413.411     -1000.9528      1214.6299      2209.1812      16198.401      282.14999      51.339507      0.66460452     53317.549    
     14900   594.89885      17477.602     -1016.115       1215.6721      2246.2275      16217.588      300.16538      53.861711      0.66436873     53336.471    
     15000   596.57069      17447.919     -1027.2208      1219.9427      2317.491       16156.831      245.31483      72.819302      0.66408943     53358.903    
     15100   593.90153      17441.683     -1028.1615      1216.699       2274.3587      16204.413      226.0033       86.178153      0.66384753     53378.348    
     15200   591.67366      17410.827     -1012.3191      1209.3138      2201.4376      16270.652      221.62548      59.323162      0.66362679     53396.102    
     15300   592.25122      17346.799     -1000.6438      1212.8032      2159.1538      16165.566      288.25663      59.964811      0.66352951     53403.931    
     15400   574.0755       17460.071     -966.07423      1209.7429      2237.3214      16209.014      254.6378       53.765134      0.66356675     53400.933    
     15500   588.42072      17297.936     -980.6328       1204.4335      2249.2196      16141.702      162.08391      61.15046       0.66350968     53405.527    
     15600   594.87674      17221.18      -1025.9456      1208.2465      2271.5592      16126.371      135.31043      46.33635       0.66333746     53419.392    
     15700   573.11467      17406.302     -1045.217       1202.4835      2272.2167      16232.738      229.75538      55.124493      0.66320876     53429.758    
     15800   579.94933      17349.484     -1041.0392      1199.9922      2219.1867      16216.616      217.07865      79.18591       0.66320546     53430.025    
     15900   584.12959      17330.982     -1008.5208      1200.3558      2270.2875      16125.041      224.45026      60.915047      0.66331486     53421.213    
     16000   590.83719      17304.712     -1003.6184      1193.0937      2280.4738      16092.151      225.59831      57.991189      0.66342926     53412.001    
     16100   588.92735      17367.605     -1003.8456      1190.3866      2311.0376      16087.083      260.72184      63.488729      0.66353056     53403.846    
     16200   579.72462      17494.032     -990.83977      1189.6088      2359.5182      16179.632      248.85511      48.591789      0.66367268     53392.41     
     16300   607.30626      17284.248     -985.56434      1194.3182      2289.7299      16058.709      235.47848      32.665149      0.66362931     53395.9      
     16400   591.47921      17450.875     -1014.287       1196.703       2374.8356      16186.311      193.68543      55.300985      0.66355057     53402.236    
     16500   600.55775      17384.145     -1031.331       1200.5067      2371.7589      16110.6        199.55484      73.965421      0.66333128     53419.89     
     16600   594.42821      17444.578     -1044.1091      1208.1349      2291.1498      16183.964      278.74239      70.053507      0.66322248     53428.654    
     16700   597.36254      17419.29      -1050.5118      1211.8016      2274.7713      16234.095      233.87292      57.846958      0.66330927     53421.663    
     16800   608.87312      17315.275     -1033.9341      1214.015       2265.7396      16087.106      249.85933      75.240269      0.66346877     53408.82     
     16900   596.7077       17420.37      -1003.2864      1218.9479      2383.3924      16059.152      256.61015      48.124849      0.66349538     53406.678    
     17000   593.92473      17439.164     -1011.2288      1213.2717      2344.5959      16140.304      245.36938      48.775082      0.66337461     53416.401    
     17100   593.38189      17435.63      -1024.4818      1211.7687      2294.5668      16186.838      244.04077      65.748126      0.6631418      53435.154    
     17200   605.86692      17313.273     -1026.3492      1213.3039      2261.3568      16048.553      299.7233       58.958108      0.66292471     53452.652    
     17300   593.31135      17411.312     -1017.1164      1213.8757      2360.0849      16141.5        200.84819      54.489802      0.66282078     53461.033    
     17400   601.55058      17320.091     -1019.8679      1209.4135      2306.8414      16180.446      121.45533      62.995065      0.66276853     53465.248    
     17500   603.65538      17280.221     -1016.9941      1202.3819      2332.8771      16066.613      181.72117      55.792706      0.66263866     53475.727    
     17600   599.47245      17290.264     -1003.6457      1198.5805      2290.177       16020.671      280.26546      45.177585      0.66234599     53499.356    
     17700   593.04194      17313.109     -1020.7145      1202.6307      2337.1213      16022.055      245.64383      66.833326      0.66205875     53522.567    
     17800   589.91741      17293.678     -1054.24        1200.5913      2268.6344      16058.09       315.43322      46.421865      0.66163243     53557.055    
     17900   601.34221      17127.395     -1039.6295      1195.1376      2205.8341      15997.583      262.36024      45.125975      0.6612014      53591.968    
     18000   576.29632      17287.248     -1039.2931      1198.327       2272.8594      16101.245      231.92035      61.370057      0.66077269     53626.738    
     18100   573.78432      17265.246     -1061.0817      1203.8503      2248.6176      16183.334      167.92899      60.666751      0.66038966     53657.842    
     18200   587.02142      17126.896     -1054.4869      1211.2115      2226.949       16044.481      176.81263      61.034846      0.66011841     53679.891    
     18300   573.22252      17251.321     -1047.1982      1207.0514      2316.4129      15989.776      246.42982      77.802332      0.65991603     53696.353    
     18400   575.59709      17245.937     -1033.1769      1201.4442      2259.0103      16081.558      221.14288      56.765929      0.6598383      53702.678    
     18500   582.20283      17210.935     -990.67041      1195.1937      2192.0133      16090.676      209.728        53.809424      0.6596164      53720.745    
     18600   587.28085      17193.982     -1026.4904      1207.4799      2223.1597      16137.997      128.13061      64.303071      0.65934687     53742.705    
     18700   575.90158      17323.772     -1021.8264      1208.9839      2290.7614      16212.531      112.52835      61.6048        0.65913055     53760.342    
     18800   589.56288      17230.462     -1040.0349      1213.2084      2316.1446      16029.052      197.56947      55.736957      0.65894856     53775.19     
     18900   591.5239       17240.126     -1044.8696      1208.594       2282.9083      15998.908      277.05059      58.391952      0.6587711      53789.676    
     19000   588.68005      17289.167     -1058.5346      1214.1769      2277.9941      16085.692      249.823        60.367045      0.65856891     53806.19     
     19100   583.97533      17351.632     -1021.8255      1214.4828      2321.3197      16168.887      156.31461      52.758713      0.65840828     53819.317    
     19200   589.86276      17318.121     -1019.752       1210.1977      2292.6105      16165.46       150.62206      61.331645      0.65817482     53838.408    
     19300   593.74296      17306.928     -999.12896      1204.1356      2365.9577      16042.835      173.40626      62.213172      0.65786572     53863.703    
     19400   600.17389      17272.374     -990.7428       1212.491       2224.7715      15975.037      327.12786      65.888296      0.6574891      53894.557    
     19500   587.06422      17408.918     -999.95513      1208.3661      2357.6508      16036.012      284.26456      64.708251      0.6570826      53927.899    
     19600   597.06087      17336.921     -1018.2429      1213.1535      2362.2125      16028.042      231.00923      63.381103      0.65655425     53971.296    
     19700   588.35544      17431.619     -1019.9196      1212.6358      2349.9294      16187.459      180.26313      64.357318      0.65601457     54015.697    
     19800   599.23884      17349.207     -1053.643       1219.5095      2327.079       16244.177      87.464872      67.988384      0.65562029     54048.181    
     19900   592.79777      17414.582     -1025.6462      1208.0112      2333.7559      16210.858      137.34283      92.468372      0.65526687     54077.332    
     20000   589.26733      17449.799     -980.3301       1201.2644      2347.0542      16176.894      186.41366      58.905275      0.65500372     54099.058    
     20100   604.07485      17316.671     -1027.6939      1212.2093      2320.3139      16016.95       264.67914      70.158385      0.6547493      54120.08     
     20200   594.77225      17387.576     -1029.3984      1220.2027      2340.6568      16045.944      287.15545      62.741063      0.65454918     54136.626    
     20300   584.51935      17448.598     -1016.0001      1214.5408      2397.3382      16105.934      237.24018      49.708301      0.65435604     54152.605    
     20400   595.76969      17295.892     -1027.0915      1209.4605      2279.489       16068.382      242.35174      62.318495      0.65406438     54176.753    
     20500   583.98509      17338.303     -1001.8995      1218.3516      2299.4368      16055.788      234.41556      72.178385      0.65382958     54196.208    
     20600   582.97801      17293.858     -1022.1379      1216.8441      2253.7884      16049.367      264.01383      71.974291      0.65351018     54222.696    
     20700   582.34369      17264.245     -1012.6258      1210.4316      2271.2403      16034.64       232.58836      69.562777      0.65319396     54248.947    
     20800   575.29908      17307.608     -1004.2354      1208.994       2258.3902      15998.05       325.25257      62.356279      0.65286351     54276.405    
     20900   584.16333      17223.563     -1045.5835      1213.1309      2322.4752      15988.029      221.2171       66.252778      0.65256488     54301.243    
     21000   583.10655      17236.536     -1037.8495      1212.8467      2302.8488      16087.113      147.05621      65.614691      0.65224796     54327.627    
     21100   585.23111      17227.701     -1027.1063      1203.7533      2207.7174      16117.1        204.80508      62.836999      0.65198672     54349.395    
     21200   596.66762      17146.126     -1021.3009      1205.0675      2294.9157      15951.722      192.89664      64.841501      0.65185542     54360.343    
     21300   593.99638      17196.689     -992.87056      1206.8391      2204.9687      16092.896      174.34893      51.14759       0.65180861     54364.247    
     21400   593.60563      17237.317     -1009.5415      1210.1357      2305.9591      16070.533      145.88088      53.810504      0.65165547     54377.023    
     21500   593.90075      17277.759     -1031.091       1217.0125      2404.1229      16029.11       144.02094      52.202745      0.65141473     54397.118    
     21600   596.86213      17291.16      -1018.6068      1224.8155      2332.974       16046.381      187.74902      57.068739      0.65108598     54424.585    
     21700   591.68644      17374.38      -1008.382       1215.5467      2360.1905      16018.669      264.58893      62.480384      0.65074853     54452.807    
     21800   591.79569      17403.502     -995.70582      1224.0783      2365.0271      16116.693      163.62604      67.753168      0.65047185     54475.968    
     21900   594.79087      17397.286     -1019.2898      1218.0105      2330.4185      16155.806      170.94205      78.898606      0.65010631     54506.599    
     22000   602.77782      17335.203     -1040.691       1225.2591      2271.1648      16095.754      265.40024      57.90216       0.64959698     54549.336    
     22100   599.30072      17366.023     -1006.6004      1214.4493      2293.7743      16120.651      221.50093      62.373876      0.6492413      54579.22     
     22200   592.55748      17420.595     -1003.7444      1221.9338      2309.6259      16182.608      166.24628      84.060595      0.6490141      54598.327    
     22300   603.08793      17318.464     -1017.2143      1228.1313      2253.3126      16130.316      195.47976      67.455296      0.6487492      54620.621    
     22400   598.23904      17350.555     -1012.782       1239.5103      2271.2696      16173.806      157.71965      58.99645       0.64859089     54633.953    
     22500   601.25527      17310.406     -1026.925       1230.643       2266.0945      16093.259      203.15778      82.166928      0.64842894     54647.598    
     22600   592.36463      17373.767     -1040.4403      1237.0042      2189.4114      16150.77       307.69932      66.454079      0.64824001     54663.525    
     22700   587.98107      17395.154     -1006.0255      1222.2799      2266.4451      16106.08       270.8259       71.869854      0.6481226      54673.427    
     22800   599.54452      17275.07      -1023.1471      1228.8882      2257.9757      16100.461      180.07409      67.585854      0.64799319     54684.346    
     22900   590.71025      17336.366     -1020.0414      1223.1627      2263.1972      16165.668      176.78259      63.289573      0.64789184     54692.901    
     23000   602.77022      17209.186     -1003.2619      1218.7005      2191.5998      16073.687      205.99948      58.262488      0.64764166     54714.028    
     23100   589.61271      17303.602     -1031.3854      1222.8095      2333.6585      16128.275      118.65238      67.567206      0.64732041     54741.182    
     23200   596.56955      17216.934     -1038.5472      1218.6483      2241.1262      16090.546      165.55651      73.977379      0.64693164     54774.078    
     23300   585.40061      17292.655     -1010.9193      1212.6584      2236.5129      16058.349      250.69987      79.303093      0.64653405     54807.761    
     23400   584.0181       17278.523     -1016.8675      1219.7263      2231.7992      16114.516      176.6275       86.908072      0.64618238     54837.59     
     23500   583.04889      17258.478     -1021.9182      1223.1936      2232.314       16063.836      231.73862      63.697158      0.64566634     54881.418    
     23600   582.37556      17236.414     -1002.9619      1219.7852      2259.8078      16056.503      181.66176      56.551149      0.64515398     54925.003    
     23700   574.47574      17279.267     -1016.6375      1217.6852      2309.3976      16081.009      147.73872      75.845157      0.64463052     54969.603    
     23800   577.9993       17222.018     -1033.9045      1216.0017      2172.283       16012.827      332.67553      60.149251      0.6439593      55026.9      
     23900   567.90751      17294.356     -1012.6169      1218.6338      2221.1407      16044.906      290.99888      69.760821      0.6433488      55079.117    
     24000   565.66564      17314.615     -997.32165      1216.098       2320.9933      16000.892      240.85271      71.690535      0.64273405     55131.798    
     24100   568.73441      17311.89      -988.73295      1218.0198      2270.3232      16014.379      283.51388      54.02184       0.6420064      55194.285    
     24200   579.4907       17266.713     -999.50292      1217.9475      2275.7189      16060.486      192.41414      60.815767      0.64125664     55258.818    
     24300   597.89012      17166.718     -1012.2498      1211.8097      2168.8606      15995.031      276.93026      68.235367      0.64037508     55334.889    
     24400   586.26205      17331.082     -1031.0763      1213.4991      2228.3709      16116.013      278.37617      67.908453      0.6394718      55413.052    
     24500   602.05978      17234.99      -1028.2418      1212.3734      2199.4122      16043.702      283.18717      67.154821      0.63847264     55499.769    
     24600   580.55376      17460.439     -1019.4318      1209.6936      2264.7146      16147.086      330.77342      70.421961      0.63756338     55578.92     
     24700   591.5605       17390.115     -1028.6915      1211.5557      2325.8297      16095.897      245.87697      81.53205       0.63683135     55642.807    
     24800   599.15449      17345.968     -1023.0728      1221.4236      2275.9255      16113.513      226.94402      72.192087      0.63624707     55693.905    
     24900   598.40708      17370.852     -1003.0778      1223.8472      2374.1339      16113.728      135.45755      66.814056      0.63580873     55732.302    
     25000   613.33535      17248.813     -962.07351      1223.4735      2172.4021      16023.87       256.73232      74.985704      0.63543717     55764.89     
     25100   593.19646      17437.135     -951.14209      1214.0094      2265.9899      16087.702      293.21645      68.306316      0.63495915     55806.872    
     25200   587.02402      17496.089     -978.4394       1207.3799      2313.9183      16092.998      315.65493      84.852308      0.63435342     55860.161    
     25300   588.04188      17488.961     -1014.2616      1218.5967      2271.888       16155.434      332.90371      65.285536      0.63366511     55920.838    
     25400   603.27295      17348.644     -1012.7283      1221.9414      2241.084       16130.049      241.14277      66.832282      0.63306911     55973.484    
     25500   598.78763      17377.191     -985.21885      1217.8565      2212.446       16190.527      202.80431      77.830774      0.63261        56014.107    
     25600   600.46756      17343.148     -962.8727       1216.5965      2274.8084      16102.89       168.98851      80.603616      0.63225421     56045.627    
     25700   590.61028      17403.723     -952.74244      1223.2215      2236.7706      16200.751      159.29952      73.271652      0.63189481     56077.504    
     25800   592.97763      17346.545     -955.53562      1215.406       2241.6824      16109.236      205.98889      66.703247      0.63141326     56120.273    
     25900   588.83125      17342.204     -978.87032      1215.7406      2291.5252      16028.37       258.67208      65.161181      0.63092822     56163.416    
     26000   586.25137      17322.282     -957.34202      1205.7894      2269.9693      16080.64       185.67507      76.195951      0.63049157     56202.312    
     26100   579.32576      17345.502     -972.40004      1204.9108      2240.5293      16134.719      197.24355      77.620156      0.63004972     56241.726    
     26200   580.79024      17306.753     -977.07451      1207.5502      2284.5212      16087.176      173.38923      68.928611      0.6295919      56282.624    
     26300   586.18791      17244.297     -990.67028      1207.3334      2182.2289      16062.123      254.61094      67.658979      0.62915615     56321.605    
     26400   573.25005      17356.248     -993.06482      1205.3562      2327.7493      16106.902      185.38229      64.302645      0.62880678     56352.898    
     26500   589.53841      17219.746     -978.25574      1204.2416      2264.1017      16101.606      93.507612      72.614371      0.62851629     56378.943    
     26600   575.80546      17368.112     -971.45661      1201.2062      2228.7932      16122.076      252.70467      72.162685      0.6281059      56415.78     
     26700   583.52687      17342.762     -987.92218      1204.6031      2207.3467      16107.566      256.89313      91.057911      0.6277761      56445.417    
     26800   595.59178      17297.011     -1013.1627      1207.4939      2234.6951      16094.177      228.25094      84.114527      0.62755348     56465.441    
     26900   608.18678      17250.706     -1018.6126      1215.7039      2286.958       16067.017      181.95273      57.146601      0.6274703      56472.926    
     27000   597.08568      17397.232     -987.85751      1216.7497      2348.8325      16140.749      144.39061      74.149016      0.62760082     56461.182    
     27100   606.19082      17340.218     -947.84915      1213.5751      2235.3141      16066.753      250.39937      62.176115      0.62786799     56437.157    
     27200   591.36846      17482.314     -956.73456      1218.8675      2378.0129      16082.823      234.12858      65.634145      0.62810868     56415.53     
     27300   595.91515      17445.44      -968.9224       1211.5982      2313.5457      16111.907      235.39319      81.842884      0.62824097     56403.651    
     27400   594.74153      17452.901     -976.83762      1207.8757      2244.1875      16215.16       229.08654      73.553808      0.62844757     56385.108    
     27500   604.49301      17355.695     -987.18508      1205.8417      2294.3306      16077.397      227.97614      77.899996      0.62872928     56359.844    
     27600   609.95437      17293.374     -1016.3063      1212.943       2271.7954      16134.235      178.24422      52.772099      0.62921298     56316.518    
     27700   582.9663       17512.838     -985.31657      1208.4023      2375.0807      16290.713      80.859785      82.740406      0.62966209     56276.35     
     27800   599.99809      17336.18      -983.58718      1219.2583      2274.8974      16164.585      117.69695      82.931117      0.63000625     56245.607    
     27900   601.11792      17296.148     -979.87642      1216.1197      2242.1707      16071.163      212.4884       72.303487      0.63029777     56219.593    
     28000   584.11962      17417.44      -979.77912      1212.1851      2243.3159      16105.765      305.98131      69.174281      0.63046122     56205.018    
     28100   583.85271      17391.967     -989.56149      1216.1672      2262.4788      16166.528      228.50319      46.965728      0.63054377     56197.659    
     28200   586.64712      17344.569     -971.71428      1216.3207      2260.8656      16070.987      232.17288      75.482178      0.63052543     56199.294    
     28300   582.58467      17362.664     -997.21539      1212.001       2275.8637      16074.864      257.51435      79.703128      0.63048378     56203.007    
     28400   591.02401      17275.384     -998.34039      1214.6881      2226.5481      16076.883      230.54866      66.276513      0.63034486     56215.393    
     28500   580.0626       17364.311     -1020.8346      1225.8186      2209.4743      16112.557      304.25028      73.250043      0.63022519     56226.068    
     28600   582.59544      17331.631     -996.45768      1225.3845      2189.8996      16129.442      248.91602      74.180081      0.63021601     56226.886    
     28700   591.60534      17247.112     -989.52776      1222.7237      2291.1159      16073.683      133.66233      54.94763       0.63014024     56233.647    
     28800   590.51323      17257.214     -998.7646       1213.2503      2264.5876      16087.671      171.57242      58.666431      0.62998234     56247.742    
     28900   587.77979      17290.297     -1029.3714      1215.7402      2266.8972      16043.98       263.19593      68.711396      0.62977295     56266.443    
     29000   583.66624      17350.008     -1026.0461      1215.0017      2238.9242      16090.005      300.36236      70.974098      0.62945531     56294.837    
     29100   588.52271      17346.726     -1027.836       1217.9025      2244.9986      16042.953      348.65597      58.726455      0.62909841     56326.774    
     29200   590.61121      17375.557     -1005.1002      1223.0099      2276.1846      16042.852      319.66753      58.312145      0.62888242     56346.119    
     29300   588.12237      17445.462     -1012.0377      1222.8346      2392.7248      16113.455      202.09744      65.222389      0.62869206     56363.181    
     29400   600.10218      17380.888     -1021.6267      1236.5994      2202.0743      16124.022      305.56357      73.668511      0.62843671     56386.083    
     29500   604.53243      17376.202     -1012.5237      1230.4821      2255.099       16110.421      267.55776      64.17572       0.62812659     56413.921    
     29600   603.5733       17407.294     -1018.6264      1224.3598      2315.9784      16062.856      278.66297      82.365692      0.62771877     56450.573    
     29700   596.21833      17483.056     -1013.8532      1227.6903      2281.5577      16196.216      265.60677      64.768885      0.62726066     56491.8      
     29800   592.17523      17520.888     -1005.5101      1224.4298      2322.0345      16209.227      242.71586      66.448298      0.62679709     56533.581    
     29900   601.55229      17429.025     -1000.5601      1229.4625      2298.7498      16132.175      225.2194       81.799166      0.62632671     56576.038    
     30000   591.13104      17501.645     -985.5244       1221.5887      2317.4464      16125.409      290.34825      71.183081      0.62582812     56621.112    
     30100   607.02329      17324.847     -1014.7642      1214.3554      2314.8543      16019.592      261.26137      68.028346      0.62536082     56663.422    
     30200   588.83112      17439.406     -1020.2629      1222.717       2307.2972      16165.627      237.77425      65.590895      0.62490534     56704.722    
     30300   589.46705      17383.565     -972.81945      1222.1678      2215.3661      16033.539      346.77722      76.319332      0.62440839     56749.853    
     30400   586.69755      17368.492     -962.44009      1216.7751      2256.9891      16013.757      295.3298       85.594163      0.62390397     56795.734    
     30500   595.10471      17265.755     -989.36626      1213.7438      2181.1534      16053.777      281.32475      62.933688      0.62332475     56848.511    
     30600   584.31735      17343.073     -1008.2442      1210.9568      2303.779       16075.314      212.94451      86.741814      0.62270664     56904.94     
     30700   584.1039       17335.985     -989.22302      1224.566       2187.8501      16146.938      243.67843      60.368465      0.62206548     56963.592    
     30800   581.6206       17355.971     -1005.1316      1223.5637      2268.2224      16100.436      255.93406      49.450363      0.6215195      57013.632    
     30900   587.63888      17303.14      -992.07192      1212.0497      2211.3119      16080.739      249.2511       78.814811      0.6210424      57057.431    
     31000   586.24783      17323.755     -986.79065      1212.1285      2244.0857      16089.024      238.80856      63.115363      0.62042642     57114.08     
     31100   581.23013      17379.208     -994.11665      1208.5637      2284.549       16130.231      214.84376      72.521316      0.61985339     57166.879    
     31200   584.90739      17358.986     -977.45812      1218.0606      2250.8102      16181.848      154.99125      67.728802      0.61937972     57210.598    
     31300   595.85434      17277.17      -1002.887       1210.9592      2237.7966      16102.67       197.22913      67.542262      0.61891358     57253.687    
     31400   592.22204      17327.963     -1029.1791      1211.853       2359.349       16133.06       123.34946      64.445563      0.61855854     57286.549    
     31500   583.9831       17418.192     -1030.2673      1203.0374      2356.468       16130.386      218.15785      75.866584      0.61832808     57307.9      
     31600   588.07463      17400.736     -1029.7187      1204.6454      2281.664       16048.155      360.76088      70.88119       0.61812894     57326.363    
     31700   594.99233      17359.858     -990.53274      1203.3729      2287.9688      16064.47       254.25393      77.840434      0.61801368     57337.055    
     31800   594.46428      17391.338     -994.2828       1205.1599      2258.019       16103.773      284.71269      71.286862      0.61778153     57358.6      
     31900   598.4015       17395.513     -997.05256      1201.8631      2237.3553      16139.611      290.69844      60.855465      0.61745204     57389.208    
     32000   613.216        17314.823     -1016.2088      1203.987       2286.1456      16052.289      260.42067      66.320189      0.61706642     57425.073    
     32100   601.94765      17471.216     -1037.457       1207.6045      2274.9217      16210.676      288.81098      64.542824      0.61670905     57458.349    
     32200   607.91115      17462.643     -1047.0654      1209.1993      2260.6175      16110.251      393.02486      72.451223      0.6164655      57481.05     
     32300   602.82684      17533.628     -1035.4399      1207.7302      2351.3305      16066.207      390.59962      90.358598      0.61629257     57497.178    
     32400   613.29056      17445.381     -1002.1251      1218.3838      2264.9048      16136.677      286.85875      76.855967      0.61620796     57505.073    
     32500   608.96082      17466.276     -997.10059      1210.4599      2280.0335      16103.879      322.00142      85.361522      0.61618469     57507.245    
     32600   613.88514      17378.854     -995.03996      1208.3989      2301.261       16003.138      333.34104      64.578243      0.61617163     57508.464    
     32700   597.03208      17464.565     -991.9659       1203.3719      2353.9126      16112.068      254.83931      68.174666      0.61610994     57514.223    
     32800   592.77733      17437.058     -999.18702      1211.8415      2380.7482      16042.596      268.22296      68.477594      0.61611768     57513.5      
     32900   598.14434      17344.5       -1017.5138      1213.9619      2354.3971      16032.45       233.50107      63.723369      0.61604922     57519.891    
     33000   595.25723      17339.813     -1001.1463      1207.5178      2318.6813      16103.682      187.70531      58.749817      0.61595548     57528.644    
     33100   594.88676      17319.532     -991.04351      1198.276       2233.4115      16073.869      266.4909       74.962477      0.6158545      57538.078    
     33200   592.48735      17321.486     -995.84934      1206.8094      2298.2248      16013.757      259.74321      74.856608      0.61578034     57545.007    
     33300   601.07159      17225.21      -998.96975      1201.6716      2301.8269      16032.048      172.45758      52.183822      0.61581877     57541.416    
     33400   585.50207      17343.404     -979.95333      1199.636       2315.1334      16087.142      190.2067       68.255006      0.61597633     57526.697    
     33500   579.69833      17375.354     -1010.2829      1219.1565      2293.6779      16126.83       191.72729      90.573699      0.61605782     57519.088    
     33600   575.34541      17396.097     -984.87568      1207.1441      2260.3405      16133.026      247.50819      68.978726      0.61606843     57518.098    
     33700   588.09716      17264.571     -988.43755      1215.1424      2143.542       16004.881      350.11116      74.083241      0.61617619     57508.039    
     33800   583.53722      17292.135     -976.80236      1217.4749      2246.472       16000.579      269.04175      70.450892      0.61634157     57492.608    
     33900   576.85962      17342.271     -966.06878      1212.7328      2252.2456      16088.246      225.35036      64.678278      0.61649549     57478.253    
     34000   586.31624      17253.691     -952.28038      1210.2989      2206.6611      16054.75       203.79621      65.52769       0.6166561      57463.283    
     34100   586.20132      17258.008     -937.98708      1203.0281      2236.4166      16038.273      191.4532       62.921213      0.61673883     57455.575    
     34200   582.9664       17296.49      -969.28413      1206.3787      2223.4229      15991.657      326.02575      54.350242      0.61671191     57458.083    
     34300   574.86495      17388.076     -1000.018       1212.633       2276.3223      16027.582      336.66446      71.057922      0.61675848     57453.745    
     34400   577.51492      17396.43      -998.50708      1202.4616      2226.4793      16119.396      306.88499      76.517137      0.61693917     57436.917    
     34500   589.49511      17334.305     -982.57162      1207.9487      2189.6785      16089.651      310.03965      57.367978      0.61720304     57412.362    
     34600   590.71383      17377.192     -996.11438      1203.7809      2276.5679      16107.847      258.88383      63.021851      0.61751442     57383.411    
     34700   594.73644      17392.573     -978.24945      1199.4253      2342.6049      16056.342      243.55259      65.936515      0.61770985     57365.257    
     34800   606.37592      17322.172     -1000.6491      1204.2847      2330.9427      15997.881      255.03529      72.215417      0.61782856     57354.234    
     34900   592.37526      17462.629     -1005.6568      1203.2953      2359.7767      16063.983      315.03607      63.139937      0.6179871      57339.52     
     35000   596.88954      17424.122     -972.27545      1205.0331      2280.341       16103.426      285.95532      59.710893      0.61825146     57315.002    
     35100   592.63225      17453.155     -966.19655      1211.6311      2300.8618      16142.978      236.47429      64.013885      0.61854465     57287.836    
     35200   602.21273      17348.153     -935.5398       1208.8178      2237.192       16056.331      253.69374      65.576389      0.61872926     57270.743    
     35300   595.13792      17387.789     -976.58254      1212.2386      2325.3375      16024.414      281.92833      56.814474      0.618809       57263.362    
     35400   596.78229      17345.322     -982.59197      1209.0438      2260.9328      16048.63       295.74454      48.7477        0.61890373     57254.598    
     35500   583.54034      17436.092     -973.62312      1204.5909      2291.2367      16138.261      245.1569       63.543544      0.6190613      57240.025    
     35600   581.52796      17426.977     -953.21747      1207.1774      2286.6524      16150.982      206.39423      62.060598      0.61920088     57227.122    
     35700   591.81493      17310.921     -990.09711      1215.4315      2258.418       16078.532      204.55127      78.432231      0.6192555      57222.074    
     35800   588.4285       17323         -984.95642      1212.4914      2253.0253      16088.297      222.62534      67.47252       0.61918474     57228.614    
     35900   583.29375      17356.367     -970.05032      1218.7481      2237.4073      16068.49       278.61629      58.928498      0.61914862     57231.952    
     36000   589.72984      17291.515     -966.25625      1213.5319      2301.273       16030.414      191.64066      55.7475        0.61919799     57227.388    
     36100   595.64659      17234.089     -966.00908      1216.7389      2247.3904      16058.401      156.72109      58.920774      0.61923865     57223.631    
     36200   585.31703      17322.848     -977.15835      1219.2344      2244.062       16146.593      177.20586      50.64919       0.6192906      57218.83     
     36300   589.40093      17286.561     -964.67947      1214.0259      2258.0587      16096.654      159.72276      61.203726      0.61935904     57212.508    
     36400   589.11243      17291.544     -968.12133      1206.3978      2200.4265      16157.746      169.11122      65.269447      0.61952883     57196.828    
     36500   589.57782      17289.257     -986.85516      1209.611       2287.5157      16206.943      46.219578      65.792613      0.61978885     57172.832    
     36600   591.5185       17269.006     -992.0179       1212.0372      2265.0602      16181.152      83.829468      58.213318      0.62006893     57147.008    
     36700   594.87023      17236.258     -967.18552      1208.8771      2260.2567      16152.481      76.884078      42.931961      0.62042214     57114.474    
     36800   584.41706      17330.335     -957.88879      1208.2798      2301.9024      16100.045      166.5786       48.686492      0.62084263     57075.791    
     36900   600.10369      17195.41      -964.12979      1210.594       2224.0793      16087.308      131.44693      44.140042      0.62134223     57029.898    
     37000   581.66164      17366.743     -970.4458       1201.3683      2342.0241      16128.348      158.20714      45.36901       0.62192361     56976.586    
     37100   586.2608       17332.792     -966.42645      1201.4308      2246.1734      16154.644      163.26669      70.852267      0.62254772     56919.467    
     37200   596.44803      17250.546     -958.17229      1204.2672      2250.8984      16123.366      117.52042      51.261198      0.62312001     56867.19     
     37300   590.65601      17307.942     -968.04145      1209.6456      2298.4091      16121.785      130.67749      52.926988      0.6237317      56811.42     
     37400   587.47763      17340.923     -963.13457      1204.2566      2270.2843      16129.068      174.86018      63.061413      0.62435233     56754.948    
     37500   576.51844      17442.201     -948.0011       1203.8547      2398.2055      16206.757      75.080197      41.085599      0.62493812     56701.749    
     37600   607.66726      17161.821     -928.92622      1199.8874      2193.4894      16093.359      87.678002      51.069537      0.62548115     56652.521    
     37700   586.26431      17343.641     -956.0134       1207.2289      2289.4178      16112.313      164.84687      59.516968      0.62605024     56601.023    
     37800   599.03409      17210.639     -966.36174      1203.5693      2222.1563      16003.919      230.69753      51.968678      0.62657354     56553.751    
     37900   597.21408      17197.835     -994.85642      1206.8916      2315.2872      15996.287      164.58649      44.118087      0.62710715     56505.629    
     38000   583.94388      17280.535     -994.03538      1194.7466      2324.4261      16070.382      174.06978      47.348251      0.62770466     56451.842    
     38100   589.23265      17193.266     -998.62961      1202.5996      2275.1853      16067.417      138.07709      45.939919      0.62827518     56400.58     
     38200   578.5546       17251.093     -1013.6138      1206.3936      2230.123       16109.453      192.31625      64.97598       0.62894102     56340.87     
     38300   586.49956      17146.566     -998.32203      1210.7026      2155.8409      16035.299      223.49249      56.61418       0.62965105     56277.337    
     38400   575.20938      17223.812     -979.62274      1218.8564      2313.259       16043.311      111.88355      53.512131      0.63049083     56202.379    
     38500   578.46551      17184.026     -978.66399      1220.3094      2234.4848      16111.988      68.683116      64.181377      0.63138707     56122.6      
     38600   566.97925      17293.352     -959.13115      1224.7191      2277.4747      16149.151      76.691417      61.599046      0.63219126     56051.208    
     38700   576.62756      17228.507     -958.37439      1210.2324      2236.4671      16111.707      116.89983      50.370732      0.63304051     55976.014    
     38800   583.15677      17204.135     -945.9636       1212.4557      2214.176       16135.144      73.400039      54.277802      0.63379771     55909.139    
     38900   570.12407      17363.976     -990.3223       1216.5956      2243.1657      16209.25       155.05497      70.740019      0.63448221     55848.822    
     39000   595.34646      17183.621     -1002.3442      1216.3249      2217.9007      16072.809      159.8389       60.415855      0.63519954     55785.752    
     39100   592.99662      17242.808     -1005.6968      1219.8261      2252.5517      16066.066      190.66664      60.556017      0.6359415      55720.666    
     39200   584.63106      17344.279     -966.34397      1211.6863      2325.5214      16048.01       204.10036      63.232959      0.63660916     55662.227    
     39300   594.60056      17268.897     -956.52502      1213.3333      2245.6033      15993.065      255.58084      60.025982      0.63719991     55610.623    
     39400   593.11007      17285.811     -1013.1997      1211.1841      2267.6318      16093.909      196.00113      71.04939       0.63778986     55559.184    
     39500   596.95373      17248.333     -1018.8807      1211.6852      2270.0011      16085.359      178.57153      62.771782      0.6382682      55517.546    
     39600   588.88944      17314.909     -1008.2689      1209.6451      2217.8565      16159.121      203.9593       72.764353      0.63878306     55472.799    
     39700   587.0164       17324.181     -1010.2509      1218.2077      2274.552       16072.044      244.87831      65.522023      0.63928228     55429.479    
     39800   586.52209      17321.632     -1036.3058      1214.2686      2230.3468      16070.867      320.93628      60.034416      0.63984112     55381.067    
     39900   588.41044      17300.915     -1038.8275      1229.2056      2320.7055      16003.833      268.5567       56.407257      0.64042308     55330.741    
     40000   582.09355      17351.502     -1021.1233      1230.9437      2337.9436      16048.989      235.41952      57.389617      0.6409318      55286.825    
     40100   591.29099      17263.942     -1015.3462      1221.5377      2230.9877      16079.656      233.5639       51.828544      0.64147615     55239.909    
     40200   582.28639      17338.302     -1034.4081      1220.9545      2257.9502      16114.763      254.6638       62.781601      0.64212329     55184.237    
     40300   590.63805      17255.135     -1030.7321      1219.0691      2238.1938      16068.074      231.12771      68.861266      0.64270035     55134.689    
     40400   592.20543      17231.668     -1033.0729      1223.7954      2224.8201      16101.486      203.32642      50.5236        0.64330892     55082.532    
     40500   568.86272      17430.576     -1040.2793      1223.4426      2308.1596      16097.184      314.3747       66.68259       0.64399781     55023.61     
     40600   574.41253      17372.897     -1033.1041      1217.9648      2153.9816      16174.101      319.75847      78.073737      0.64473058     54961.073    
     40700   574.46776      17373.361     -1028.2176      1214.846       2322.3693      16082.864      258.78793      61.353888      0.64550957     54894.746    
     40800   596.53448      17183.661     -1056.9531      1208.7397      2237.3649      16084.842      201.65622      46.432291      0.64631664     54826.198    
     40900   583.57985      17311.636     -1039.9129      1206.0836      2354.6049      16070.966      210.42891      48.498346      0.64710203     54759.656    
     41000   598.5267       17193.522     -1036.2562      1202.9723      2165.1504      16051.865      291.22082      57.760488      0.647827       54698.375    
     41100   588.61319      17293.899     -1024.1139      1204.813       2243.0547      16032.331      305.21523      71.538268      0.64852587     54639.43     
     41200   597.49828      17225.921     -1062.9623      1200.0315      2252.9882      16046.983      264.59198      62.54492       0.64928219     54575.783    
     41300   589.20095      17301.905     -1049.8486      1198.5362      2335.0624      16151.771      150.19036      54.487007      0.65011986     54505.463    
     41400   591.30151      17279.773     -1024.803       1205.0006      2266.7961      16128.505      176.17977      66.404539      0.65094882     54436.052    
     41500   592.65801      17258.836     -991.01051      1202.8244      2217.4267      16085.188      202.89542      81.844925      0.65184989     54360.804    
     41600   579.00774      17370.179     -987.70561      1207.1179      2352.135       16071.411      198.41149      67.457552      0.65263605     54295.321    
     41700   593.43847      17230.025     -1028.922       1217.376       2277.5213      15986.934      255.68957      60.067996      0.65317369     54250.63     
     41800   580.90135      17323.413     -1045.5472      1215.4698      2330.4808      15991.591      299.64129      70.648138      0.65369203     54207.612    
     41900   583.91052      17270.006     -1032.2401      1217.932       2288.1639      16032.9        242.28913      58.323377      0.65413822     54170.637    
     42000   581.63906      17263.097     -1027.3535      1216.7088      2339.4311      16075.119      130.79623      65.55224       0.65451039     54139.834    
     42100   579.49227      17256.348     -1046.4503      1219.8936      2249.3643      16101.831      198.83937      69.662881      0.65480213     54115.713    
     42200   572.43116      17298.967     -1017.2194      1221.405       2303.2479      16071.916      192.28098      63.919125      0.65503543     54096.439    
     42300   578.18858      17234.554     -1000.9013      1219.8745      2312.8679      16065.101      119.33373      54.755436      0.65520421     54082.503    
     42400   577.12591      17238.421     -1025.4336      1213.664       2207.9937      16086.273      247.46304      44.787361      0.65515434     54086.62     
     42500   584.54796      17174.167     -1037.1136      1205.9806      2235.9826      15994.754      245.10028      67.476188      0.65508662     54092.212    
     42600   579.98091      17225.624     -1064.7738      1211.9066      2304.1319      16039.354      209.9666       63.392341      0.65485494     54111.349    
     42700   575.24984      17289.907     -1048.7004      1217.4745      2275.8428      16175.223      149.30321      57.753244      0.65442581     54146.831    
     42800   588.81535      17211.149     -1043.7596      1214.9318      2175.8604      16191.738      152.20508      57.455386      0.65408418     54175.113    
     42900   587.39661      17280.191     -1012.4502      1223.0386      2233.8163      16033.871      280.65332      59.903766      0.65367584     54208.955    
     43000   581.88382      17385.575     -1024.0427      1236.9194      2299.4966      16114.437      223.21405      72.720401      0.65325883     54243.559    
     43100   580.24883      17449.462     -1024.8151      1229.4896      2349.1581      16197.531      162.68673      72.37948       0.65269313     54290.573    
     43200   592.86621      17372.3       -1056.1488      1221.4928      2250.9657      16113.168      311.00964      70.18415       0.65198597     54349.458    
     43300   591.66169      17403.669     -1071.5356      1232.1557      2327.1261      16057.121      328.816        68.380759      0.65138015     54400.006    
     43400   609.28151      17253.989     -1063.4211      1229.7332      2237.4379      16017.351      314.3182       56.652346      0.65078463     54449.787    
     43500   595.50383      17370.272     -1053.5716      1225.3178      2291.8974      16067.492      315.01401      63.638298      0.65026692     54493.136    
     43600   593.61651      17367.925     -1021.385       1229.2284      2283.4496      16079.812      265.95083      71.388214      0.64980823     54531.603    
     43700   591.94276      17353.74      -1015.9482      1236.2787      2255.3836      16005.404      339.57003      74.086572      0.6493866      54567.008    
     43800   580.8921       17416.376     -1016.3906      1224.9707      2255.7         16081.898      353.61845      56.154258      0.64899488     54599.944    
     43900   588.60722      17316.467     -999.49122      1226.3416      2237.2428      16045.095      280.59194      67.535101      0.64861511     54631.912    
     44000   580.86077      17359.407     -994.114        1229.8271      2323.323       16039.059      241.68633      61.899265      0.64816921     54669.496    
     44100   583.77044      17315.639     -998.53864      1235.0561      2260.3279      16009.754      282.17748      70.386361      0.64757891     54719.33     
     44200   583.4321       17306.75      -1017.3115      1236.2518      2299.6565      15998.823      275.12841      54.476927      0.64700541     54767.832    
     44300   582.89098      17303.532     -1037.8967      1223.3474      2248.5104      16053.927      298.61355      56.663259      0.64651745     54809.169    
     44400   582.50218      17302.211     -1037.6609      1220.476       2274.1757      16036.702      265.51794      82.472805      0.64605729     54848.207    
     44500   585.04082      17279.134     -1032.9921      1229.1585      2271.8533      15988.946      294.3921       68.356139      0.6457189      54876.95     
     44600   579.75373      17326.809     -1040.865       1222.518       2217.1008      16053.561      331.27569      81.789469      0.64547383     54897.786    
     44700   578.00795      17341.785     -1029.1371      1217.6493      2264.3556      16015.826      348.73627      63.018213      0.64505033     54933.828    
     44800   578.22099      17341.429     -1043.9288      1222.0083      2218.8607      16112.898      304.5434       64.472393      0.64469143     54964.41     
     44900   578.77055      17343.113     -1027.5559      1216.6114      2249.0448      16105.087      252.83774      84.590671      0.64446616     54983.622    
[...]
    361600   492.13308      15977.823     -1324.3337      1168.5254      1904.4217      15748.923     -21.275385      46.422548      0.82804978     42793.423    
    361700   482.15319      16071.557     -1357.7006      1171.4405      1948.467       15761.657      42.081809      51.024901      0.82821808     42784.726    
    361800   480.51715      16084.598     -1359.33        1163.3652      1950.2323      15728.448      98.504704      48.535523      0.82841826     42774.388    
    361900   491.6118       15978.759     -1351.5355      1165.3559      1862.1763      15722.249      91.957267      32.682818      0.82877183     42756.139    
    362000   481.09415      16057.96      -1341.4936      1169.9268      1953.5719      15722.076      75.802134      21.830521      0.82920993     42733.55     
    362100   484.66584      16004.437     -1344.7754      1163.4446      1959.1327      15691.262      25.526239      54.449292      0.82959323     42713.806    
    362200   493.38566      15898.078     -1365.4933      1163.5423      1883.1536      15715.966      6.2428648      38.725856      0.8298334      42701.444    
    362300   480.39337      15976.243     -1380.448       1157.8827      1919.9102      15735.242      45.602896      43.415968      0.83004505     42690.555    
    362400   478.15938      15955.395     -1378.4805      1160.8735      1860.881       15803.14       20.995917      34.246524      0.83029075     42677.922    
    362500   467.47317      16012.907     -1355.207       1158.4071      1887.2658      15801.204      22.93872       44.857248      0.8306055      42661.75     
    362600   478.61539      15890.267     -1354.9835      1167.2634      1908.6212      15689.745     -21.712396      48.637793      0.83099205     42641.905    
    362700   473.14285      15927.218     -1353.3193      1170.0911      1855.6175      15732.004      29.871755      39.184928      0.83135187     42623.449    
    362800   475.23261      15906.649     -1329.4072      1167.7785      1892.7005      15704.257     -12.276433      30.234663      0.83166072     42607.62     
    362900   478.30629      15883.357     -1350.9793      1166.1122      1863.0774      15693.749      21.311444      36.886015      0.83190598     42595.059    
    363000   463.02575      16030.13      -1351.8695      1167.1869      1907.7062      15798.322      19.331894      36.70895       0.83200786     42589.843    
    363100   475.34941      15937.364     -1365.5835      1161.7246      1901.0903      15735.334      9.9176098      41.544009      0.83196366     42592.105    
    363200   476.76654      15943.513     -1363.5396      1161.5001      1920.3049      15735.378     -2.6754758      38.487307      0.83199541     42590.48     
    363300   472.10432      16006.918     -1379.0652      1159.6425      1924.918       15777.366      34.905527      35.203019      0.8321305      42583.566    
    363400   479.51558      15965.419     -1395.5194      1171.3292      1941.1223      15716.561      44.953832      31.188645      0.83216819     42581.638    
    363500   478.80769      15998.572     -1374.19        1159.6796      1960.35        15696.625      62.769656      39.107382      0.83221274     42579.358    
    363600   482.47288      15985.06      -1373.3278      1163.8683      1847.861       15772.858      78.023837      41.13711       0.83237635     42570.989    
    363700   484.81329      15977.601     -1386.3234      1164.4241      1845.4162      15801.106      60.260047      38.505363      0.83253297     42562.98     
    363800   484.63471      15984.065     -1374.0699      1163.3867      1899.3921      15812.736     -18.062111      45.362354      0.8327587      42551.443    
    363900   486.76799      15963.073     -1336.5266      1163.3363      1935.1755      15665.179      26.695594      54.32997       0.83307546     42535.263    
    364000   477.37173      16039.025     -1342.8846      1168.3715      1918.8226      15725.461      84.221021      30.972495      0.83326689     42525.491    
    364100   474.68066      16051.371     -1349.396       1170.0136      1909.5174      15716.541      117.15795      33.093965      0.83331599     42522.986    
    364200   474.23899      16040.739     -1356.5178      1170.8675      1926.035       15785.844      34.112123      24.518064      0.83340274     42518.56     
    364300   483.05627      15939.998     -1376.4282      1170.0257      1894.6369      15814.477     -51.574393      33.236901      0.83351379     42512.895    
    364400   468.62464      16039.679     -1370.9881      1171.8833      1973.5223      15822.147     -41.424792      28.80544       0.83353344     42511.892    
    364500   475.41213      15940.265     -1379.1889      1181.1253      1911.6472      15750.573     -8.2208833      29.338577      0.83350639     42513.272    
    364600   468.86146      15959.327     -1361.8274      1188.0335      1944.058       15681.969      28.916224      22.879808      0.83354237     42511.437    
    364700   468.81485      15928.725     -1325.8487      1177.1558      1917.1409      15651.417      8.587467       43.532523      0.83353061     42512.037    
    364800   469.06262      15906.429     -1337.7549      1174.2427      1884.7106      15755.8       -63.166025      35.093293      0.83333748     42521.889    
    364900   463.61672      15947.934     -1339.4335      1179.096       1944.8072      15799.071     -109.9864       16.795487      0.83297607     42540.339    
    365000   475.40576      15847.365     -1349.5138      1176.581       1883.0963      15747.378     -96.846045      28.885277      0.83250276     42564.525    
    365100   469.59643      15917.609     -1380.9565      1179.155       1960.1914      15712.83      -36.164824      23.633572      0.83193145     42593.754    
    365200   481.6862       15843.487     -1394.4384      1179.2113      1850.3959      15647.081      63.371716      37.407014      0.83135334     42623.374    
    365300   476.5398       15937.717     -1383.4423      1178.3047      1849.1633      15710.83       82.265399      39.725504      0.83091717     42645.748    
    365400   470.40859      16047.542     -1384.0401      1175.2956      1900.4358      15816.771      32.753086      47.68817       0.83063821     42660.07     
    365500   480.43509      15998.488     -1381.9849      1177.8488      1855.9684      15781.909      65.609077      40.22535       0.83030339     42677.273    
    365600   475.82541      16063.371     -1381.3384      1171.2706      1974.3216      15877.142     -57.731589      19.267083      0.8300988      42687.791    
    365700   471.44115      16114.075     -1371.756       1170.3102      1939.8245      15859.476      25.512981      31.410406      0.83000787     42692.468    
    365800   485.53336      15995.663     -1390.4543      1173.0023      1881.6924      15785.933      49.269414      36.917863      0.82994984     42695.452    
    365900   480.62111      16042.238     -1373.5825      1169.1272      1884.6769      15785.491      76.252667      41.692284      0.82979368     42703.488    
    366000   487.80355      15977.382     -1369.1953      1167.7491      1872.6703      15678.223      118.50996      51.109575      0.82967191     42709.755    
    366100   489.17401      15959.466     -1385.387       1168.2879      1935.1074      15780.566     -44.967526      48.183445      0.82967867     42709.407    
    366200   481.61847      16017.088     -1374.8296      1171.6139      1937.8533      15827.588     -29.767281      26.377426      0.82973215     42706.654    
    366300   485.32529      15967.628     -1400.8142      1173.7303      1984.4588      15770.393     -41.218529      23.611091      0.82997453     42694.183    
    366400   474.95561      16036.032     -1337.8317      1173.6577      1972.0713      15784.248     -52.008451      36.606352      0.83033448     42675.674    
    366500   470.96704      16044.357     -1345.4095      1171.7475      1964.1423      15663.681      74.350757      55.879365      0.83065122     42659.402    
    366600   473.02819      15998.762     -1341.9515      1165.452       1917.4701      15681.045      63.684912      53.234467      0.83095154     42643.984    
    366700   472.28553      15979.643     -1345.9337      1165.2742      1916.7934      15730.912      19.378672      34.330081      0.8312732      42627.483    
    366800   481.30466      15878.809     -1360.3077      1171.9474      1911.6962      15675.388     -10.423429      33.508059      0.83161716     42609.852    
    366900   466.36603      15998.244     -1381.3034      1168.5409      1997.2092      15757.999     -33.407254      30.542683      0.83195746     42592.423    
    367000   478.5584       15882.454     -1397.0369      1164.6435      1925.1717      15639.265      66.057377      27.086053      0.83241275     42569.127    
    367100   473.83708      15925.172     -1373.213       1164.5066      1908.0334      15663.034      67.85859       37.825824      0.8330037      42538.928    
    367200   464.51352      16013.81      -1353.0381      1153.3654      1964.37        15696.998      58.300494      36.923982      0.83336865     42520.299    
    367300   483.32917      15858.933     -1348.6263      1156.137       1875.3421      15630.275      60.356743      27.927434      0.83352725     42512.208    
    367400   474.30772      15970.26      -1384.8662      1147.0178      1940.5054      15787.303     -26.937167      51.102793      0.83376353     42500.161    
    367500   472.1212       16043.399     -1374.5424      1154.0765      2010.2001      15862.599     -105.47729      37.301819      0.8340022      42487.999    
    367600   483.95117      15997.009     -1396.1635      1162.6486      1939.2937      15790.839      8.4215465      33.641868      0.83442402     42466.52     
    367700   482.3726       16053.52      -1350.8242      1162.995       1906.4423      15698.318      149.44428      28.71713       0.83496334     42439.09     
    367800   477.29168      16121.056     -1346.7927      1153.7306      1984.6065      15670.365      161.65078      39.547905      0.83541767     42416.01     
    367900   495.38697      15967.77      -1395.2995      1156.9323      1979.1128      15662.422      78.879881      29.106098      0.83575143     42399.071    
    368000   485.89531      16048.357     -1401.7833      1171.1008      1983.5587      15800.922      19.872765      19.885708      0.83594919     42389.04     
    368100   483.09523      16059.2       -1383.8249      1170.8663      1988.1892      15762.565      30.278239      37.75954       0.83617714     42377.485    
    368200   484.13469      16028.715     -1376.5103      1174.3639      1973.7493      15755.681      0.55055598     46.256525      0.83656401     42357.888    
    368300   477.73741      16060.188     -1411.5401      1178.8154      1944.3963      15695.794      146.30431      52.392167      0.83696524     42337.581    
    368400   488.06708      15940.913     -1382.5449      1172.9378      1921.7724      15649.47       87.078739      37.621614      0.83745874     42312.633    
    368500   478.96965      15993.712     -1392.4521      1172.3236      2098.0187      15685.041     -53.050098      29.375191      0.83812646     42278.923    
    368600   482.88634      15930.899     -1378.405       1178.4628      1955.5739      15665.385      19.899685      35.706979      0.83856424     42256.851    
    368700   473.14567      15993.209     -1388.7851      1174.3821      2018.3465      15740.235     -35.362851      29.337844      0.83894456     42237.694    
    368800   482.94836      15885.547     -1407.5309      1171.0803      1913.3363      15726.945     -5.6484807      32.622596      0.83933191     42218.202    
    368900   470.65381      15983.263     -1412.4175      1175.8035      1945.1932      15708.543      72.185302      37.668865      0.83970725     42199.331    
    369000   470.31463      15977.834     -1401.4495      1169.5126      1940.5094      15717.891      41.76196       54.300213      0.84016761     42176.208    
    369100   471.68278      15962.418     -1389.9992      1172.1679      1932.7047      15719.614      29.344932      42.634946      0.840588       42155.116    
    369200   477.84715      15908.399     -1404.5895      1172.6849      1899.7881      15767.092     -13.701019      32.037859      0.84111356     42128.775    
    369300   474.55579      15939.225     -1385.4809      1170.4747      1947.434       15773.499     -51.211415      28.546781      0.84154373     42107.24     
    369400   480.14691      15891.882     -1397.116       1175.0986      1904.1875      15695.622      27.430184      30.96548       0.84195263     42086.791    
    369500   470.36305      15980.468     -1387.276       1172.2131      1943.9976      15696.142      57.393692      41.628607      0.84238254     42065.312    
    369600   473.76869      15950.753     -1397.2962      1168.1999      1947.6946      15682.484      66.639451      27.697744      0.84275806     42046.568    
    369700   476.7171       15932.095     -1411.5356      1175.724       1917.8686      15717.55       53.144607      23.237322      0.84322068     42023.5      
    369800   470.38852      15996.632     -1407.0725      1168.9658      1992.0799      15707.949      50.050751      28.70819       0.84371542     41998.858    
    369900   483.28718      15890.72      -1384.7272      1171.6646      1907.2408      15688.904      22.979825      27.600483      0.84432123     41968.723    
    370000   479.3208       15939.393     -1395.4132      1159.9077      1927.7974      15704.62       48.772075      38.016138      0.84489538     41940.203    
    370100   471.28516      16030.734     -1407.7013      1173.6293      1988.0064      15723.157      54.654043      41.471897      0.84535944     41917.18     
    370200   482.37974      15962.442     -1401.4511      1170.2411      1926.9597      15725.318      48.350468      36.923886      0.84582482     41894.117    
    370300   489.44859      15944.552     -1380.8934      1159.4608      2002.5347      15670.857      9.3543901      26.894347      0.84629575     41870.804    
    370400   480.1704       16079.602     -1368.0606      1155.959       2040.0671      15737.459      33.358203      25.391307      0.84665678     41852.95     
    370500   495.67957      15982.956     -1371.8716      1154.9006      1995.2087      15749.327     -31.66624       31.881527      0.84694749     41838.584    
    370600   489.59769      16058.699     -1377.083       1158.2781      1968.2033      15791.362      23.405655      39.209372      0.84702009     41834.998    
    370700   490.9297       16049.328     -1420.8978      1165.1511      1966.7323      15759.122      76.100369      47.638688      0.84683025     41844.377    
    370800   486.03674      16079.753     -1380.7582      1161.5213      1977.4152      15823.683     -3.6461764      44.771088      0.8466262      41854.462    
    370900   482.53445      16083.589     -1408.3572      1167.1921      1948.8243      15836.491      47.086987      36.98984       0.84645238     41863.057    
    371000   488.0275       15996.181     -1408.8192      1166.2973      1952.4912      15785.893      28.689466      15.827377      0.84625037     41873.05     
    371100   484.01517      15989.146     -1415.9035      1165.2255      1981.5196      15732.715      39.732371      29.229024      0.84596131     41887.358    
    371200   487.59242      15918.035     -1399.0059      1165.1173      1884.4962      15783.013     -6.5373326      34.795526      0.84566371     41902.098    
    371300   478.87187      15966.554     -1397.1128      1166.5769      1961.8224      15726.173      22.990143      31.618015      0.84537652     41916.333    
    371400   479.2333       15941.051     -1413.4844      1173.7772      1866.1913      15719.733      112.22748      27.865126      0.84504108     41932.972    
    371500   472.9891       15979.633     -1382.2713      1172.3996      1906.5989      15797.499      16.706981      14.404425      0.84487629     41941.151    
    371600   471.96207      15976.034     -1350.413       1167.1745      1932.2283      15809.414     -58.509267      21.476127      0.84457676     41956.025    
    371700   470.24723      15980.481     -1397.9742      1166.8628      1871.4704      15797.197      66.335068      21.648374      0.84403168     41983.121    
    371800   475.87826      15923.76      -1416.1377      1172.2379      1905.1063      15850.983     -68.816105      25.520384      0.84349201     42009.982    
    371900   472.22307      15947.726     -1403.0066      1171.9725      1840.0655      15832.312      17.394989      33.844249      0.84299469     42034.765    
    372000   461.55874      16037.221     -1392.3802      1173.6011      1941.0438      15872.542     -44.17905       31.362421      0.8427291      42048.013    
    372100   474.52798      15920.36      -1410.6162      1179.3097      1964.7263      15761.71      -70.510989      41.683073      0.84255099     42056.902    
    372200   478.25226      15887.697     -1397.3389      1172.2988      1970.4636      15747.773     -79.739645      19.957491      0.84240253     42064.313    
    372300   480.46958      15867.985     -1416.0195      1182.1668      1893.088       15730.532      10.848955      13.779118      0.84228093     42070.386    
    372400   473.75192      15930.002     -1407.4983      1181.1848      2042.4316      15603.043      23.948476      33.625303      0.84216013     42076.421    
    372500   471.16724      15953.709     -1382.6832      1168.5779      1936.6821      15772.359     -26.208283      32.115588      0.84211061     42078.895    
    372600   472.67838      15943.588     -1401.4042      1170.9283      1936.7392      15762.566     -8.129003       29.68501       0.84198714     42085.066    
    372700   480.60688      15877.045     -1433.5738      1167.5261      1994.4341      15684.908     -20.498047      31.9839        0.84187702     42090.571    
    372800   476.32363      15918.193     -1422.9505      1171.5082      1996.6641      15754.596     -49.724715      16.68282       0.84187809     42090.517    
    372900   469.54454      15978.427     -1384.8567      1168.9512      1957.3565      15761.749     -9.408803       33.738451      0.84182891     42092.976    
    373000   473.5657       15942.151     -1361.2101      1160.2611      1892.4913      15739.867      27.661376      31.649461      0.84179599     42094.622    
    373100   472.85994      15949.448     -1385.2574      1158.3495      1925.293       15782.689     -6.2945991      23.350298      0.84179675     42094.584    
    373200   474.36477      15937.245     -1393.7114      1167.9836      1914.3734      15765.977      1.3474263      29.35936       0.84174064     42097.39     
    373300   481.97984      15870.465     -1383.3915      1167.7962      1920.3899      15794.485     -109.27285      28.0631        0.84163142     42102.853    
    373400   471.27334      15969.148     -1382.0611      1165.3972      1975.9504      15825.981     -115.85731      46.019066      0.84147359     42110.75     
    373500   469.03634      15994.457     -1393.8684      1161.1895      1908.1407      15864.489     -38.193145      39.795453      0.84146799     42111.03     
    373600   477.98453      15922.926     -1399.4812      1166.5888      1950.9567      15719.312      12.040543      18.85973       0.84145478     42111.691    
    373700   477.65127      15935.149     -1392.21        1161.8526      1975.75        15622.971      91.017548      21.368317      0.84134944     42116.964    
    373800   477.27571      15950.212     -1360.7957      1164.1804      1909.4138      15682.44       83.555486      16.515538      0.84121624     42123.633    
