LAMMPS output created by EMC v9.4.4, build Jul 27 2022 18:02:20

          72  atoms
          73  bonds
         140  angles
         183  dihedrals
          88  impropers

           8  atom types
          12  bond types
          25  angle types
          34  dihedral types
          21  improper types

             0    41.63302961  xlo xhi
             0    41.63302961  ylo yhi
             0    41.63302961  zlo zhi

Masses

       1   12.01115  # c
       2   12.01115  # c1
       3   12.01115  # c3h
       4    1.00797  # h
       5    1.00797  # hc
       6   15.99940  # o3e
       7   15.99940  # oc
       8   15.99940  # oh

Atoms

       1       1   1 -0.1590  36.3939279365   0.8117485486  10.7880260146  # c
       2       1   5  0.0530  35.8138651213   1.0430467004   9.8920784261  # hc
       3       1   5  0.0530  37.4074793423   0.6449900653  10.3239022732  # hc
       4       1   5  0.0530  36.4112974120   1.7145578027  11.4315230121  # hc
       5       1   1  0.0000  35.8676225672  -0.3810203867  11.6460550159  # c
       6       1   1  0.0270  35.5937847811  -1.7505941261  10.7946642101  # c
       7       1   5  0.0530  35.0953422030  -2.3386221236  11.5427844863  # hc
       8       1   5  0.0530  34.8055428434  -1.5277558439   9.9841863544  # hc
       9       1   7 -0.2660  36.8142216380  -2.2490720639  10.2104474060  # oc
      10       1   1  0.0270  37.0881759412  -3.6922200658  10.2841329403  # c
      11       1   5  0.0530  36.3597427799  -4.1747590679   9.5946237390  # hc
      12       1   5  0.0530  38.1016943933  -3.8661280454   9.8269525839  # hc
      13       1   2  0.0800  36.8192736693  -4.4498436119  11.6548257733  # c1
      14       1   5  0.0530  37.0242601750  -3.7093238494  12.4125453323  # hc
      15       1   1  0.0270  37.6272789710  -5.7541643784  11.9661832459  # c
      16       1   5  0.0530  36.9113305991  -6.5748412373  12.3206262359  # hc
      17       1   5  0.0530  38.3175101236  -5.5303811144  12.8154544883  # hc
      18       1   8 -0.5571  38.4664819792  -6.2021745332  10.8629608044  # oh
      19       1   4  0.4241  37.9391449707  -6.6880896760  10.2479322813  # h
      20       1   7 -0.2660  35.4175722146  -4.6311843308  11.9336746152  # oc
      21       1   1  0.0270  34.4904725926  -5.6386034094  11.6242820737  # c
      22       1   5  0.0530  34.8841348488  -6.4326640637  10.9321332195  # hc
      23       1   5  0.0530  34.2489414172  -6.1490700020  12.5593319766  # hc
      24       1   1 -0.1060  33.1385211234  -5.0237853440  11.0719317255  # c
      25       1   5  0.0530  32.9061867157  -4.2128926746  11.7302000307  # hc
      26       1   5  0.0530  32.3362796184  -5.7677776845  11.1849240441  # hc
      27       1   1  0.0270  33.1885013494  -4.5637568239   9.6031443138  # c
      28       1   5  0.0530  34.0134867464  -3.8438332055   9.3501851090  # hc
      29       1   5  0.0530  33.4178701421  -5.4039299918   8.9235913269  # hc
      30       1   7 -0.2660  31.8752931968  -4.1238733297   9.2442808938  # oc
      31       1   1  0.0270  31.7047619826  -3.7631483155   7.8874348912  # c
      32       1   5  0.0530  32.5068360623  -3.0874327529   7.5393553185  # hc
      33       1   5  0.0530  30.7809645550  -3.1414317335   7.9369676354  # hc
      34       1   1  0.0000  31.4842675793  -4.8673818694   6.8465804249  # c
      35       1   1 -0.1590  30.6032910166  -4.3280901270   5.7027895057  # c
      36       1   5  0.0530  30.7231050988  -4.8298942665   4.7046418710  # hc
      37       1   5  0.0530  30.6798080668  -3.2530720663   5.4356973343  # hc
      38       1   5  0.0530  29.5103361821  -4.3493272893   5.8640756665  # hc
      39       1   1  0.0270  30.5770634786  -6.0688927503   7.3361750116  # c
      40       1   5  0.0530  29.6899020198  -5.5977045824   7.7344169700  # hc
      41       1   5  0.0530  30.3547354848  -6.7224388926   6.4153544150  # hc
      42       1   7 -0.2660  31.2390816572  -6.8358239035   8.3404505163  # oc
      43       1   1  0.0270  30.3308532987  -7.7263090046   9.0300773485  # c
      44       1   5  0.0530  29.3997193112  -7.2011567701   9.2237655296  # hc
      45       1   5  0.0530  30.1018367867  -8.5997345233   8.4071757562  # hc
      46       1   3  0.0800  31.0148368580  -8.1556775958  10.3935977525  # c3h
      47       1   5  0.0530  32.0047265575  -8.6108029321  10.2866059045  # hc
      48       1   6 -0.2660  30.1077367080  -8.9690574451  11.2986487706  # o3e
      49       1   1  0.0270  30.5349490366  -7.6467792006  11.7154361071  # c
      50       1   5  0.0530  31.1335977841  -7.6248523282  12.6010615307  # hc
      51       1   5  0.0530  29.7971871734  -6.8238082909  11.7338708635  # hc
      52       1   1 -0.1590  32.8320002298  -5.3274186774   6.0769926317  # c
      53       1   5  0.0530  32.7232714098  -6.1988257702   5.4328648395  # hc
      54       1   5  0.0530  33.2833845154  -4.5495196287   5.4851319650  # hc
      55       1   5  0.0530  33.6540100222  -5.4320238606   6.8114523595  # hc
      56       1   1 -0.1590  34.4066920254   0.0544572432  12.0755601383  # c
      57       1   5  0.0530  33.7410702167   0.2199826474  11.1897121605  # hc
      58       1   5  0.0530  33.8674052952  -0.8884044204  12.4903600670  # hc
      59       1   5  0.0530  34.2756711002   0.8602417929  12.7969851914  # hc
      60       1   1  0.0270  36.9060800993  -0.5862345710  12.7982517522  # c
      61       1   5  0.0530  36.5571729245  -1.3052944205  13.5847518344  # hc
      62       1   5  0.0530  37.1080787254   0.3621346228  13.3298161707  # hc
      63       1   7 -0.2660  38.1703852966  -0.8977922373  12.2513813777  # oc
      64       1   1  0.0270  39.1702282635  -1.2090720887  13.2139216687  # c
      65       1   5  0.0530  38.8103644890  -1.9959433675  13.8627054558  # hc
      66       1   5  0.0530  39.3195314999  -0.3771274847  13.8856308681  # hc
      67       1   3  0.0800  40.5362644940  -1.5191757392  12.6325100679  # c3h
      68       1   5  0.0530  40.7228648359  -0.8078790504  11.7681348647  # hc
      69       1   6 -0.2660  40.8462669356  -2.9021649696  12.3819237259  # o3e
      70       1   1  0.0270  41.6515215020  -2.1822103473  13.3585690231  # c
      71       1   5  0.0530  41.4676792893  -2.4614110327  14.3617697420  # hc
      72       1   5  0.0530  42.6833312961  -2.0167504201  13.0921109949  # hc

Bonds

       1       1       1       5  # c,c
       2       4       1       2  # c,hc
       3       4       1       3  # c,hc
       4       4       1       4  # c,hc
       5       1       5      60  # c,c
       6       1       5       6  # c,c
       7       1       5      56  # c,c
       8       6       6       9  # c,oc
       9       4       6       7  # c,hc
      10       4       6       8  # c,hc
      11       6      10       9  # c,oc
      12       2      10      13  # c,c1
      13       4      10      11  # c,hc
      14       4      10      12  # c,hc
      15       9      13      20  # c1,oc
      16       8      13      14  # c1,hc
      17       2      15      13  # c,c1
      18       7      15      18  # c,oh
      19       4      15      16  # c,hc
      20       4      15      17  # c,hc
      21      12      19      18  # h,oh
      22       6      21      20  # c,oc
      23       1      21      24  # c,c
      24       4      21      22  # c,hc
      25       4      21      23  # c,hc
      26       1      24      27  # c,c
      27       4      24      25  # c,hc
      28       4      24      26  # c,hc
      29       6      27      30  # c,oc
      30       4      27      28  # c,hc
      31       4      27      29  # c,hc
      32       6      31      30  # c,oc
      33       1      31      34  # c,c
      34       4      31      32  # c,hc
      35       4      31      33  # c,hc
      36       1      34      52  # c,c
      37       1      34      35  # c,c
      38       1      34      39  # c,c
      39       4      35      36  # c,hc
      40       4      35      37  # c,hc
      41       4      35      38  # c,hc
      42       6      39      42  # c,oc
      43       4      39      40  # c,hc
      44       4      39      41  # c,hc
      45       6      43      42  # c,oc
      46       3      43      46  # c,c3h
      47       4      43      44  # c,hc
      48       4      43      45  # c,hc
      49      11      46      48  # c3h,o3e
      50      10      46      47  # c3h,hc
      51       3      49      46  # c,c3h
      52       5      49      48  # c,o3e
      53       4      49      50  # c,hc
      54       4      49      51  # c,hc
      55       4      52      53  # c,hc
      56       4      52      54  # c,hc
      57       4      52      55  # c,hc
      58       4      56      57  # c,hc
      59       4      56      58  # c,hc
      60       4      56      59  # c,hc
      61       6      60      63  # c,oc
      62       4      60      61  # c,hc
      63       4      60      62  # c,hc
      64       6      64      63  # c,oc
      65       3      64      67  # c,c3h
      66       4      64      65  # c,hc
      67       4      64      66  # c,hc
      68      11      67      69  # c3h,o3e
      69      10      67      68  # c3h,hc
      70       3      70      67  # c,c3h
      71       5      70      69  # c,o3e
      72       4      70      71  # c,hc
      73       4      70      72  # c,hc

Angles

       1       1       1       5      60  # c,c,c
       2       1       1       5       6  # c,c,c
       3       1       1       5      56  # c,c,c
       4       2       5       1       2  # c,c,hc
       5      20       2       1       3  # hc,c,hc
       6      20       2       1       4  # hc,c,hc
       7       2       5       1       3  # c,c,hc
       8      20       3       1       4  # hc,c,hc
       9       2       5       1       4  # c,c,hc
      10       3       5      60      63  # c,c,oc
      11       2       5      60      61  # c,c,hc
      12       2       5      60      62  # c,c,hc
      13       3       5       6       9  # c,c,oc
      14       2       5       6       7  # c,c,hc
      15       2       5       6       8  # c,c,hc
      16       2       5      56      57  # c,c,hc
      17       2       5      56      58  # c,c,hc
      18       2       5      56      59  # c,c,hc
      19       1       6       5      60  # c,c,c
      20       1       6       5      56  # c,c,c
      21      11       6       9      10  # c,oc,c
      22      22       7       6       9  # hc,c,oc
      23      20       7       6       8  # hc,c,hc
      24      22       8       6       9  # hc,c,oc
      25      15      13      10       9  # c1,c,oc
      26      22      11      10       9  # hc,c,oc
      27      22      12      10       9  # hc,c,oc
      28       6      10      13      20  # c,c1,oc
      29       5      10      13      14  # c,c1,hc
      30       4      10      13      15  # c,c1,c
      31      14      13      10      11  # c1,c,hc
      32      20      11      10      12  # hc,c,hc
      33      14      13      10      12  # c1,c,hc
      34      12      21      20      13  # c,oc,c1
      35      16      13      15      18  # c1,c,oh
      36      14      13      15      16  # c1,c,hc
      37      14      13      15      17  # c1,c,hc
      38      24      14      13      20  # hc,c1,oc
      39       5      15      13      14  # c,c1,hc
      40       6      15      13      20  # c,c1,oc
      41      13      15      18      19  # c,oh,h
      42      23      16      15      18  # hc,c,oh
      43      20      16      15      17  # hc,c,hc
      44      23      17      15      18  # hc,c,oh
      45       3      24      21      20  # c,c,oc
      46      22      22      21      20  # hc,c,oc
      47      22      23      21      20  # hc,c,oc
      48       1      21      24      27  # c,c,c
      49       2      21      24      25  # c,c,hc
      50       2      21      24      26  # c,c,hc
      51       2      24      21      22  # c,c,hc
      52      20      22      21      23  # hc,c,hc
      53       2      24      21      23  # c,c,hc
      54       3      24      27      30  # c,c,oc
      55       2      24      27      28  # c,c,hc
      56       2      24      27      29  # c,c,hc
      57       2      27      24      25  # c,c,hc
      58      20      25      24      26  # hc,c,hc
      59       2      27      24      26  # c,c,hc
      60      11      27      30      31  # c,oc,c
      61      22      28      27      30  # hc,c,oc
      62      20      28      27      29  # hc,c,hc
      63      22      29      27      30  # hc,c,oc
      64       3      34      31      30  # c,c,oc
      65      22      32      31      30  # hc,c,oc
      66      22      33      31      30  # hc,c,oc
      67       1      31      34      52  # c,c,c
      68       1      31      34      35  # c,c,c
      69       1      31      34      39  # c,c,c
      70       2      34      31      32  # c,c,hc
      71      20      32      31      33  # hc,c,hc
      72       2      34      31      33  # c,c,hc
      73       2      34      52      53  # c,c,hc
      74       2      34      52      54  # c,c,hc
      75       2      34      52      55  # c,c,hc
      76       2      34      35      36  # c,c,hc
      77       2      34      35      37  # c,c,hc
      78       2      34      35      38  # c,c,hc
      79       3      34      39      42  # c,c,oc
      80       2      34      39      40  # c,c,hc
      81       2      34      39      41  # c,c,hc
      82       1      35      34      52  # c,c,c
      83       1      35      34      39  # c,c,c
      84      20      36      35      37  # hc,c,hc
      85      20      36      35      38  # hc,c,hc
      86      20      37      35      38  # hc,c,hc
      87       1      39      34      52  # c,c,c
      88      11      39      42      43  # c,oc,c
      89      22      40      39      42  # hc,c,oc
      90      20      40      39      41  # hc,c,hc
      91      22      41      39      42  # hc,c,oc
      92      19      46      43      42  # c3h,c,oc
      93      22      44      43      42  # hc,c,oc
      94      22      45      43      42  # hc,c,oc
      95       9      43      46      48  # c,c3h,o3e
      96       8      43      46      47  # c,c3h,hc
      97       7      43      46      49  # c,c3h,c
      98      17      46      43      44  # c3h,c,hc
      99      20      44      43      45  # hc,c,hc
     100      17      46      43      45  # c3h,c,hc
     101      10      49      48      46  # c,o3e,c3h
     102      18      46      49      48  # c3h,c,o3e
     103      17      46      49      50  # c3h,c,hc
     104      17      46      49      51  # c3h,c,hc
     105      25      47      46      48  # hc,c3h,o3e
     106       8      49      46      47  # c,c3h,hc
     107       9      49      46      48  # c,c3h,o3e
     108      21      50      49      48  # hc,c,o3e
     109      21      51      49      48  # hc,c,o3e
     110      20      50      49      51  # hc,c,hc
     111      20      53      52      54  # hc,c,hc
     112      20      53      52      55  # hc,c,hc
     113      20      54      52      55  # hc,c,hc
     114       1      56       5      60  # c,c,c
     115      20      57      56      58  # hc,c,hc
     116      20      57      56      59  # hc,c,hc
     117      20      58      56      59  # hc,c,hc
     118      11      60      63      64  # c,oc,c
     119      22      61      60      63  # hc,c,oc
     120      20      61      60      62  # hc,c,hc
     121      22      62      60      63  # hc,c,oc
     122      19      67      64      63  # c3h,c,oc
     123      22      65      64      63  # hc,c,oc
     124      22      66      64      63  # hc,c,oc
     125       9      64      67      69  # c,c3h,o3e
     126       8      64      67      68  # c,c3h,hc
     127       7      64      67      70  # c,c3h,c
     128      17      67      64      65  # c3h,c,hc
     129      20      65      64      66  # hc,c,hc
     130      17      67      64      66  # c3h,c,hc
     131      10      70      69      67  # c,o3e,c3h
     132      18      67      70      69  # c3h,c,o3e
     133      17      67      70      71  # c3h,c,hc
     134      17      67      70      72  # c3h,c,hc
     135      25      68      67      69  # hc,c3h,o3e
     136       8      70      67      68  # c,c3h,hc
     137       9      70      67      69  # c,c3h,o3e
     138      21      71      70      69  # hc,c,o3e
     139      21      72      70      69  # hc,c,o3e
     140      20      71      70      72  # hc,c,hc

Dihedrals

       1       2       1       5      60      63  # c,c,c,oc
       2       1       1       5      60      61  # c,c,c,hc
       3       1       1       5      60      62  # c,c,c,hc
       4       2       1       5       6       9  # c,c,c,oc
       5       1       1       5       6       7  # c,c,c,hc
       6       1       1       5       6       8  # c,c,c,hc
       7       1       1       5      56      57  # c,c,c,hc
       8       1       1       5      56      58  # c,c,c,hc
       9       1       1       5      56      59  # c,c,c,hc
      10       1      60       5       1       2  # c,c,c,hc
      11       1       6       5       1       2  # c,c,c,hc
      12       1      56       5       1       2  # c,c,c,hc
      13       1      60       5       1       3  # c,c,c,hc
      14       1       6       5       1       3  # c,c,c,hc
      15       1      56       5       1       3  # c,c,c,hc
      16       1      60       5       1       4  # c,c,c,hc
      17       1       6       5       1       4  # c,c,c,hc
      18       1      56       5       1       4  # c,c,c,hc
      19       3       5      60      63      64  # c,c,oc,c
      20       3       5       6       9      10  # c,c,oc,c
      21       2       6       5      60      63  # c,c,c,oc
      22       1       6       5      60      61  # c,c,c,hc
      23       1       6       5      60      62  # c,c,c,hc
      24       1       6       5      56      57  # c,c,c,hc
      25       1       6       5      56      58  # c,c,c,hc
      26       1       6       5      56      59  # c,c,c,hc
      27      14       6       9      10      13  # c,oc,c,c1
      28      16       6       9      10      11  # c,oc,c,hc
      29      16       6       9      10      12  # c,oc,c,hc
      30       1      60       5       6       7  # c,c,c,hc
      31       1      56       5       6       7  # c,c,c,hc
      32      16      10       9       6       7  # c,oc,c,hc
      33       1      60       5       6       8  # c,c,c,hc
      34       1      56       5       6       8  # c,c,c,hc
      35      16      10       9       6       8  # c,oc,c,hc
      36       2      60       5       6       9  # c,c,c,oc
      37       2      56       5       6       9  # c,c,c,oc
      38      33       9      10      13      20  # oc,c,c1,oc
      39      28      14      13      10       9  # hc,c1,c,oc
      40       6      15      13      10       9  # c,c1,c,oc
      41       8      10      13      20      21  # c,c1,oc,c
      42       7      10      13      15      18  # c,c1,c,oh
      43       5      10      13      15      16  # c,c1,c,hc
      44       5      10      13      15      17  # c,c1,c,hc
      45      25      11      10      13      20  # hc,c,c1,oc
      46      24      11      10      13      14  # hc,c,c1,hc
      47       5      15      13      10      11  # c,c1,c,hc
      48      25      12      10      13      20  # hc,c,c1,oc
      49      24      12      10      13      14  # hc,c,c1,hc
      50       5      15      13      10      12  # c,c1,c,hc
      51       4      24      21      20      13  # c,c,oc,c1
      52      19      13      20      21      22  # c1,oc,c,hc
      53      19      13      20      21      23  # c1,oc,c,hc
      54      18      13      15      18      19  # c1,c,oh,h
      55      17      21      20      13      14  # c,oc,c1,hc
      56      29      14      13      15      18  # hc,c1,c,oh
      57      24      16      15      13      14  # hc,c,c1,hc
      58      24      17      15      13      14  # hc,c,c1,hc
      59       8      15      13      20      21  # c,c1,oc,c
      60      25      16      15      13      20  # hc,c,c1,oc
      61      21      19      18      15      16  # h,oh,c,hc
      62      25      17      15      13      20  # hc,c,c1,oc
      63      21      19      18      15      17  # h,oh,c,hc
      64      34      20      13      15      18  # oc,c1,c,oh
      65       2      27      24      21      20  # c,c,c,oc
      66      23      25      24      21      20  # hc,c,c,oc
      67      23      26      24      21      20  # hc,c,c,oc
      68       2      21      24      27      30  # c,c,c,oc
      69       1      21      24      27      28  # c,c,c,hc
      70       1      21      24      27      29  # c,c,c,hc
      71       1      27      24      21      22  # c,c,c,hc
      72      22      22      21      24      25  # hc,c,c,hc
      73      22      22      21      24      26  # hc,c,c,hc
      74       1      27      24      21      23  # c,c,c,hc
      75      22      23      21      24      25  # hc,c,c,hc
      76      22      23      21      24      26  # hc,c,c,hc
      77       3      24      27      30      31  # c,c,oc,c
      78      23      25      24      27      30  # hc,c,c,oc
      79      22      25      24      27      28  # hc,c,c,hc
      80      22      25      24      27      29  # hc,c,c,hc
      81      23      26      24      27      30  # hc,c,c,oc
      82      22      26      24      27      28  # hc,c,c,hc
      83      22      26      24      27      29  # hc,c,c,hc
      84       3      34      31      30      27  # c,c,oc,c
      85      16      27      30      31      32  # c,oc,c,hc
      86      16      27      30      31      33  # c,oc,c,hc
      87      16      31      30      27      28  # c,oc,c,hc
      88      16      31      30      27      29  # c,oc,c,hc
      89       2      52      34      31      30  # c,c,c,oc
      90       2      35      34      31      30  # c,c,c,oc
      91       2      39      34      31      30  # c,c,c,oc
      92       1      31      34      52      53  # c,c,c,hc
      93       1      31      34      52      54  # c,c,c,hc
      94       1      31      34      52      55  # c,c,c,hc
      95       1      31      34      35      36  # c,c,c,hc
      96       1      31      34      35      37  # c,c,c,hc
      97       1      31      34      35      38  # c,c,c,hc
      98       2      31      34      39      42  # c,c,c,oc
      99       1      31      34      39      40  # c,c,c,hc
     100       1      31      34      39      41  # c,c,c,hc
     101       1      52      34      31      32  # c,c,c,hc
     102       1      35      34      31      32  # c,c,c,hc
     103       1      39      34      31      32  # c,c,c,hc
     104       1      52      34      31      33  # c,c,c,hc
     105       1      35      34      31      33  # c,c,c,hc
     106       1      39      34      31      33  # c,c,c,hc
     107       3      34      39      42      43  # c,c,oc,c
     108       1      35      34      52      53  # c,c,c,hc
     109       1      35      34      52      54  # c,c,c,hc
     110       1      35      34      52      55  # c,c,c,hc
     111       2      35      34      39      42  # c,c,c,oc
     112       1      35      34      39      40  # c,c,c,hc
     113       1      35      34      39      41  # c,c,c,hc
     114       1      52      34      35      36  # c,c,c,hc
     115       1      39      34      35      36  # c,c,c,hc
     116       1      52      34      35      37  # c,c,c,hc
     117       1      39      34      35      37  # c,c,c,hc
     118       1      52      34      35      38  # c,c,c,hc
     119       1      39      34      35      38  # c,c,c,hc
     120       1      39      34      52      53  # c,c,c,hc
     121       1      39      34      52      54  # c,c,c,hc
     122       1      39      34      52      55  # c,c,c,hc
     123      15      39      42      43      46  # c,oc,c,c3h
     124      16      39      42      43      44  # c,oc,c,hc
     125      16      39      42      43      45  # c,oc,c,hc
     126       1      52      34      39      40  # c,c,c,hc
     127      16      43      42      39      40  # c,oc,c,hc
     128       1      52      34      39      41  # c,c,c,hc
     129      16      43      42      39      41  # c,oc,c,hc
     130       2      52      34      39      42  # c,c,c,oc
     131      32      48      46      43      42  # o3e,c3h,c,oc
     132      31      47      46      43      42  # hc,c3h,c,oc
     133      11      49      46      43      42  # c,c3h,c,oc
     134      12      43      46      48      49  # c,c3h,o3e,c
     135      10      43      46      49      48  # c,c3h,c,o3e
     136       9      43      46      49      50  # c,c3h,c,hc
     137       9      43      46      49      51  # c,c3h,c,hc
     138      27      44      43      46      48  # hc,c,c3h,o3e
     139      26      44      43      46      47  # hc,c,c3h,hc
     140       9      49      46      43      44  # c,c3h,c,hc
     141      27      45      43      46      48  # hc,c,c3h,o3e
     142      26      45      43      46      47  # hc,c,c3h,hc
     143       9      49      46      43      45  # c,c3h,c,hc
     144      20      46      48      49      50  # c3h,o3e,c,hc
     145      20      46      48      49      51  # c3h,o3e,c,hc
     146      13      49      48      46      47  # c,o3e,c3h,hc
     147      30      47      46      49      48  # hc,c3h,c,o3e
     148      26      50      49      46      47  # hc,c,c3h,hc
     149      26      51      49      46      47  # hc,c,c3h,hc
     150      27      50      49      46      48  # hc,c,c3h,o3e
     151      27      51      49      46      48  # hc,c,c3h,o3e
     152       2      56       5      60      63  # c,c,c,oc
     153       1      56       5      60      61  # c,c,c,hc
     154       1      56       5      60      62  # c,c,c,hc
     155       1      60       5      56      57  # c,c,c,hc
     156       1      60       5      56      58  # c,c,c,hc
     157       1      60       5      56      59  # c,c,c,hc
     158      15      60      63      64      67  # c,oc,c,c3h
     159      16      60      63      64      65  # c,oc,c,hc
     160      16      60      63      64      66  # c,oc,c,hc
     161      16      64      63      60      61  # c,oc,c,hc
     162      16      64      63      60      62  # c,oc,c,hc
     163      32      69      67      64      63  # o3e,c3h,c,oc
     164      31      68      67      64      63  # hc,c3h,c,oc
     165      11      70      67      64      63  # c,c3h,c,oc
     166      12      64      67      69      70  # c,c3h,o3e,c
     167      10      64      67      70      69  # c,c3h,c,o3e
     168       9      64      67      70      71  # c,c3h,c,hc
     169       9      64      67      70      72  # c,c3h,c,hc
     170      27      65      64      67      69  # hc,c,c3h,o3e
     171      26      65      64      67      68  # hc,c,c3h,hc
     172       9      70      67      64      65  # c,c3h,c,hc
     173      27      66      64      67      69  # hc,c,c3h,o3e
     174      26      66      64      67      68  # hc,c,c3h,hc
     175       9      70      67      64      66  # c,c3h,c,hc
     176      20      67      69      70      71  # c3h,o3e,c,hc
     177      20      67      69      70      72  # c3h,o3e,c,hc
     178      13      70      69      67      68  # c,o3e,c3h,hc
     179      30      68      67      70      69  # hc,c3h,c,o3e
     180      26      71      70      67      68  # hc,c,c3h,hc
     181      26      72      70      67      68  # hc,c,c3h,hc
     182      27      71      70      67      69  # hc,c,c3h,o3e
     183      27      72      70      67      69  # hc,c,c3h,o3e

Impropers

       1       3       5       1       2       3  # c,c,hc,hc
       2       3       5       1       2       4  # c,c,hc,hc
       3       3       5       1       3       4  # c,c,hc,hc
       4      12       2       1       3       4  # hc,c,hc,hc
       5       1       1       5      60       6  # c,c,c,c
       6       1       1       5      60      56  # c,c,c,c
       7       1       1       5       6      56  # c,c,c,c
       8       1      60       5       6      56  # c,c,c,c
       9       5       5       6       9       7  # c,c,oc,hc
      10       5       5       6       9       8  # c,c,oc,hc
      11       3       5       6       7       8  # c,c,hc,hc
      12      14       7       6       8       9  # hc,c,hc,oc
      13       7      13      10      11       9  # c1,c,hc,oc
      14       7      13      10      12       9  # c1,c,hc,oc
      15      14      11      10      12       9  # hc,c,hc,oc
      16       6      13      10      11      12  # c1,c,hc,hc
      17      18      10      13      20      14  # c,c1,oc,hc
      18      17      15      13      10      20  # c,c1,c,oc
      19      16      15      13      10      14  # c,c1,c,hc
      20      18      15      13      20      14  # c,c1,oc,hc
      21       8      13      15      18      16  # c1,c,oh,hc
      22       8      13      15      18      17  # c1,c,oh,hc
      23       6      13      15      16      17  # c1,c,hc,hc
      24      15      16      15      17      18  # hc,c,hc,oh
      25       4      24      21      22      20  # c,c,hc,oc
      26       4      24      21      23      20  # c,c,hc,oc
      27      14      22      21      23      20  # hc,c,hc,oc
      28       3      24      21      22      23  # c,c,hc,hc
      29       2      21      24      27      25  # c,c,c,hc
      30       2      21      24      27      26  # c,c,c,hc
      31       3      21      24      25      26  # c,c,hc,hc