LAMMPS (22 Dec 2022)
WARNING: Using I/O redirection is unreliable with parallel runs. Better to use the -in switch to read input files. (../lammps.cpp:531)
# PREREQUISITES:
#
#     You must use moltemplate.sh to create 3 files:
#        system.data  system.in.init  system.in.settings
#     (Follow the instructions in README_setup.sh,
#      or run the file as a script using ./README_setup.sh)

# ------------------------------- Initialization Section --------------------

units real
atom_style full
pair_style lj/class2/coul/long 10.0 10.0
#bond_style class2
bond_style hybrid class2 morse
angle_style class2
dihedral_style class2
improper_style class2
kspace_style pppm/cg 0.001

special_bonds   lj/coul 0 0 1


# ------------------------------- Atom Definition Section -------------------

read_data       "reacted_lmp.data"
Reading data file ...
  orthogonal box = (5.9030791 5.9030791 5.9030791) to (43.568975 43.568975 43.568975)
  1 by 2 by 3 MPI processor grid
  reading atoms ...
  4952 atoms
  reading velocities ...
  4952 velocities
  scanning bonds ...
  4 = max bonds/atom
  scanning angles ...
  6 = max angles/atom
  scanning dihedrals ...
  17 = max dihedrals/atom
  scanning impropers ...
  4 = max impropers/atom
  reading bonds ...
  5336 bonds
  reading angles ...
  10920 angles
  reading dihedrals ...
  17852 dihedrals
  reading impropers ...
  6890 impropers
Finding 1-2 1-3 1-4 neighbors ...
  special bond factors lj:    0        0        1       
  special bond factors coul:  0        0        1       
     4 = max # of 1-2 neighbors
     9 = max # of 1-3 neighbors
    13 = max # of special neighbors
  special bonds CPU = 0.001 seconds
  read_data CPU = 0.095 seconds

include calc.pram

# Masses

mass		 1    12.01115  # c
mass		 2    12.01115  # c1
mass		 3    12.01115  # c_1
mass		 4     1.00797  # h
mass		 5     1.00797  # hc
mass		 6    15.99940  # o3e
mass		 7    15.99940  # o_1
mass		 8    15.99940  # o_2
mass		 9    15.99940  # oc
mass		10    15.99940  # oh

# Potentials

pair_coeff	 1  1    0.05400    4.01000  # c,c
pair_coeff	 2  2    0.05400    4.01000  # c1,c1
pair_coeff	 3  3    0.12000    3.81000  # c_1,c_1
pair_coeff	 4  4    0.02000    2.99500  # h,h
pair_coeff	 5  5    0.02000    2.99500  # hc,hc
pair_coeff	 6  6    0.24000    3.53500  # o3e,o3e
pair_coeff	 7  7    0.26700    3.30000  # o_1,o_1
pair_coeff	 8  8    0.24000    3.42000  # o_2,o_2
pair_coeff	 9  9    0.24000    3.53500  # oc,oc
pair_coeff	10 10    0.24000    3.53500  # oh,oh

# Bond Coeffs

bond_coeff	 1  morse  85 2.2 1.53000    # c,c
bond_coeff	 2  morse  85 2.2 1.53000    # c,c1
bond_coeff	 3  class2  1.10100  345.00000 -691.89000  844.60000  # c,hc
bond_coeff	 4  morse  85 2.2 1.43000    # c,o_2
bond_coeff	 5  morse  85 2.2 1.53000    # c1,c1
bond_coeff	 6  morse  85 2.2 1.52020    # c1,c_1
bond_coeff	 7  class2  1.10100  345.00000 -691.89000  844.60000  # c1,hc
bond_coeff	 8  morse  85 2.2 1.42000    # c1,o3e
bond_coeff	 9  morse  85 2.2 1.42000    # c1,oc
bond_coeff	10  morse  85 2.2 1.42000    # c1,oh
bond_coeff	11  class2  1.20200  851.14030 -1918.48820 2160.76590  # c_1,o_1
bond_coeff	12  class2  1.36830  367.14810 -794.79080 1055.23190  # c_1,o_2
bond_coeff	13  class2 0.96000  493.84800    0.00000    0.00000  # h,oh

# Angle Coeffs

angle_coeff	 1  112.67000   39.51600   -7.44300   -9.55830  # c,c,c
angle_coeff	 2  112.67000   39.51600   -7.44300   -9.55830  # c,c,c1
angle_coeff	 3  110.77000   41.45300  -10.60400    5.12900  # c,c,hc
angle_coeff	 4  112.67000   39.51600   -7.44300   -9.55830  # c,c1,c
angle_coeff	 5  112.67000   39.51600   -7.44300   -9.55830  # c,c1,c1
angle_coeff	 6  108.52950   51.97470   -9.48510  -10.99850  # c,c1,c_1
angle_coeff	 7  110.77000   41.45300  -10.60400    5.12900  # c,c1,hc
angle_coeff	 8  111.27000   54.53810   -8.36420  -13.08380  # c,c1,o3e
angle_coeff	 9  111.27000   54.53810   -8.36420  -13.08380  # c,c1,oc
angle_coeff	10  111.27000   54.53810   -8.36420  -13.08380  # c,c1,oh
angle_coeff	11  113.28800   61.28680  -28.97860    7.99290  # c,o_2,c_1
angle_coeff	12  112.67000   39.51600   -7.44300   -9.55830  # c1,c,c1
angle_coeff	13  110.77000   41.45300  -10.60400    5.12900  # c1,c,hc
angle_coeff	14  107.41000   63.39070  -13.45130    1.66500  # c1,c,o_2
angle_coeff	15  110.77000   41.45300  -10.60400    5.12900  # c1,c1,hc
angle_coeff	16  111.27000   54.53810   -8.36420  -13.08380  # c1,c1,o3e
angle_coeff	17  111.27000   54.53810   -8.36420  -13.08380  # c1,c1,oc
angle_coeff	18  111.27000   54.53810   -8.36420  -13.08380  # c1,c1,oh
angle_coeff	19  123.14510   55.54310  -17.21230    0.13480  # c1,c_1,o_1
angle_coeff	20  100.31820   38.86310   -3.83230   -7.98020  # c1,c_1,o_2
angle_coeff	21  104.50000   35.74540  -10.00670   -6.27290  # c1,o3e,c1
angle_coeff	22  104.50000   35.74540  -10.00670   -6.27290  # c1,oc,c1
angle_coeff	23  109.00000   58.50000    0.00000    0.00000  # c1,oh,h
angle_coeff	24  107.73360   40.60990  -28.81210    0.00000  # c_1,c1,hc
angle_coeff	25  107.66000   39.64100  -12.92100   -2.43180  # hc,c,hc
angle_coeff	26  107.68800   65.48010  -10.34980    5.88660  # hc,c,o_2
angle_coeff	27  108.72800   58.54460  -10.80880  -12.40060  # hc,c1,o3e
angle_coeff	28  108.72800   58.54460  -10.80880  -12.40060  # hc,c1,oc
angle_coeff	29  108.72800   58.54460  -10.80880  -12.40060  # hc,c1,oh
angle_coeff	30  120.79700   95.34460  -32.28690    6.37780  # o_1,c_1,o_2

# BondBond Coeffs

angle_coeff	 1 bb    0.00000    1.53000    1.53000  # c,c,c
angle_coeff	 2 bb    0.00000    1.53000    1.53000  # c,c,c1
angle_coeff	 3 bb    3.38720    1.53000    1.10100  # c,c,hc
angle_coeff	 4 bb    0.00000    1.53000    1.53000  # c,c1,c
angle_coeff	 5 bb    0.00000    1.53000    1.53000  # c,c1,c1
angle_coeff	 6 bb    5.41990    1.53000    1.52020  # c,c1,c_1
angle_coeff	 7 bb    3.38720    1.53000    1.10100  # c,c1,hc
angle_coeff	 8 bb   11.43180    1.53000    1.42000  # c,c1,o3e
angle_coeff	 9 bb   11.43180    1.53000    1.42000  # c,c1,oc
angle_coeff	10 bb   11.43180    1.53000    1.42000  # c,c1,oh
angle_coeff	11 bb   45.45030    1.43000    1.36830  # c,o_2,c_1
angle_coeff	12 bb    0.00000    1.53000    1.53000  # c1,c,c1
angle_coeff	13 bb    3.38720    1.53000    1.10100  # c1,c,hc
angle_coeff	14 bb   23.26470    1.53000    1.43000  # c1,c,o_2
angle_coeff	15 bb    3.38720    1.53000    1.10100  # c1,c1,hc
angle_coeff	16 bb   11.43180    1.53000    1.42000  # c1,c1,o3e
angle_coeff	17 bb   11.43180    1.53000    1.42000  # c1,c1,oc
angle_coeff	18 bb   11.43180    1.53000    1.42000  # c1,c1,oh
angle_coeff	19 bb   46.06850    1.52020    1.20200  # c1,c_1,o_1
angle_coeff	20 bb   19.10690    1.52020    1.36830  # c1,c_1,o_2
angle_coeff	21 bb   -7.11310    1.42000    1.42000  # c1,o3e,c1
angle_coeff	22 bb   -7.11310    1.42000    1.42000  # c1,oc,c1
angle_coeff	23 bb    0.00000    1.42000    0.96000  # c1,oh,h
angle_coeff	24 bb    0.71150    1.52020    1.10100  # c_1,c1,hc
angle_coeff	25 bb    5.33160    1.10100    1.10100  # hc,c,hc
angle_coeff	26 bb    5.64540    1.10100    1.43000  # hc,c,o_2
angle_coeff	27 bb   23.19790    1.10100    1.42000  # hc,c1,o3e
angle_coeff	28 bb   23.19790    1.10100    1.42000  # hc,c1,oc
angle_coeff	29 bb   23.19790    1.10100    1.42000  # hc,c1,oh
angle_coeff	30 bb  121.48800    1.20200    1.36830  # o_1,c_1,o_2

# BondAngle Coeffs

angle_coeff	 1 ba    8.01600    8.01600    1.53000    1.53000  # c,c,c
angle_coeff	 2 ba    8.01600    8.01600    1.53000    1.53000  # c,c,c1
angle_coeff	 3 ba   11.42100   20.75400    1.53000    1.10100  # c,c,hc
angle_coeff	 4 ba    8.01600    8.01600    1.53000    1.53000  # c,c1,c
angle_coeff	 5 ba    8.01600    8.01600    1.53000    1.53000  # c,c1,c1
angle_coeff	 6 ba   15.87580   18.16780    1.53000    1.52020  # c,c1,c_1
angle_coeff	 7 ba   11.42100   20.75400    1.53000    1.10100  # c,c1,hc
angle_coeff	 8 ba    2.68680   20.40330    1.53000    1.42000  # c,c1,o3e
angle_coeff	 9 ba    2.68680   20.40330    1.53000    1.42000  # c,c1,oc
angle_coeff	10 ba    2.68680   20.40330    1.53000    1.42000  # c,c1,oh
angle_coeff	11 ba   46.46080   41.91160    1.43000    1.36830  # c,o_2,c_1
angle_coeff	12 ba    8.01600    8.01600    1.53000    1.53000  # c1,c,c1
angle_coeff	13 ba   20.75400   11.42100    1.53000    1.10100  # c1,c,hc
angle_coeff	14 ba   23.39200   47.94870    1.53000    1.43000  # c1,c,o_2
angle_coeff	15 ba   20.75400   11.42100    1.53000    1.10100  # c1,c1,hc
angle_coeff	16 ba    2.68680   20.40330    1.53000    1.42000  # c1,c1,o3e
angle_coeff	17 ba    2.68680   20.40330    1.53000    1.42000  # c1,c1,oc
angle_coeff	18 ba    2.68680   20.40330    1.53000    1.42000  # c1,c1,oh
angle_coeff	19 ba   37.12980   34.99820    1.52020    1.20200  # c1,c_1,o_1
angle_coeff	20 ba    1.34350    4.69780    1.52020    1.36830  # c1,c_1,o_2
angle_coeff	21 ba   -2.81120   -2.81120    1.42000    1.42000  # c1,o3e,c1
angle_coeff	22 ba   -2.81120   -2.81120    1.42000    1.42000  # c1,oc,c1
angle_coeff	23 ba    0.00000    0.00000    1.42000    0.96000  # c1,oh,h
angle_coeff	24 ba   12.46320    9.17650    1.52020    1.10100  # c_1,c1,hc
angle_coeff	25 ba   18.10300   18.10300    1.10100    1.10100  # hc,c,hc
angle_coeff	26 ba    8.68640   57.49750    1.10100    1.43000  # hc,c,o_2
angle_coeff	27 ba    4.61890   55.32700    1.10100    1.42000  # hc,c1,o3e
angle_coeff	28 ba    4.61890   55.32700    1.10100    1.42000  # hc,c1,oc
angle_coeff	29 ba    4.61890   55.32700    1.10100    1.42000  # hc,c1,oh
angle_coeff	30 ba   76.26140   71.87610    1.20200    1.36830  # o_1,c_1,o_2

# Dihedral Coeffs

dihedral_coeff	 1    0.00000    0.00000    0.05140    0.00000   -0.14300    0.00000  # c,c,c,c1
dihedral_coeff	 2    0.00000    0.00000    0.03160    0.00000   -0.16810    0.00000  # c,c,c,hc
dihedral_coeff	 3    0.00000    0.00000    0.05140    0.00000   -0.14300    0.00000  # c,c,c1,c
dihedral_coeff	 4    0.00000    0.00000    0.05140    0.00000   -0.14300    0.00000  # c,c,c1,c1
dihedral_coeff	 5    0.09720    0.00000    0.07220    0.00000   -0.25810    0.00000  # c,c,c1,c_1
dihedral_coeff	 6    0.00000    0.00000    0.03160    0.00000   -0.16810    0.00000  # c,c,c1,hc
dihedral_coeff	 7    0.71370    0.00000    0.26600    0.00000   -0.25450    0.00000  # c,c,c1,o3e
dihedral_coeff	 8    0.71370    0.00000    0.26600    0.00000   -0.25450    0.00000  # c,c,c1,oc
dihedral_coeff	 9    0.00000    0.00000    0.05140    0.00000   -0.14300    0.00000  # c,c1,c,c1
dihedral_coeff	10    0.00000    0.00000    0.03160    0.00000   -0.16810    0.00000  # c,c1,c,hc
dihedral_coeff	11    0.00000    0.00000    0.00000    0.00000   -0.25000    0.00000  # c,c1,c,o_2
dihedral_coeff	12    0.00000    0.00000    0.05140    0.00000   -0.14300    0.00000  # c,c1,c1,c
dihedral_coeff	13    0.00000    0.00000    0.03160    0.00000   -0.16810    0.00000  # c,c1,c1,hc
dihedral_coeff	14    0.71370    0.00000    0.26600    0.00000   -0.25450    0.00000  # c,c1,c1,o3e
dihedral_coeff	15    0.71370    0.00000    0.26600    0.00000   -0.25450    0.00000  # c,c1,c1,oc
dihedral_coeff	16    0.71370    0.00000    0.26600    0.00000   -0.25450    0.00000  # c,c1,c1,oh
dihedral_coeff	17    0.04420    0.00000    0.02920    0.00000    0.05620    0.00000  # c,c1,c_1,o_1
dihedral_coeff	18    1.83410    0.00000    2.06030    0.00000   -0.01950    0.00000  # c,c1,c_1,o_2
dihedral_coeff	19   -0.52030    0.00000   -0.30280    0.00000   -0.34500    0.00000  # c,c1,o3e,c1
dihedral_coeff	20   -0.52030    0.00000   -0.30280    0.00000   -0.34500    0.00000  # c,c1,oc,c1
dihedral_coeff	21    0.00000    0.00000    0.00000    0.00000    0.13000  180.00000  # c,c1,oh,h
dihedral_coeff	22   -2.55940    0.00000    2.20130    0.00000    0.03250    0.00000  # c,o_2,c_1,c1
dihedral_coeff	23    0.00000    0.00000    2.20890    0.00000    0.00000    0.00000  # c,o_2,c_1,o_1
dihedral_coeff	24    0.00000    0.00000    0.05140    0.00000   -0.14300    0.00000  # c1,c,c,c1
dihedral_coeff	25    0.00000    0.00000    0.03160    0.00000   -0.16810    0.00000  # c1,c,c,hc
dihedral_coeff	26    0.00000    0.00000    0.05140    0.00000   -0.14300    0.00000  # c1,c,c1,c1
dihedral_coeff	27    0.09720    0.00000    0.07220    0.00000   -0.25810    0.00000  # c1,c,c1,c_1
dihedral_coeff	28    0.00000    0.00000    0.03160    0.00000   -0.16810    0.00000  # c1,c,c1,hc
dihedral_coeff	29    0.71370    0.00000    0.26600    0.00000   -0.25450    0.00000  # c1,c,c1,o3e
dihedral_coeff	30    0.71370    0.00000    0.26600    0.00000   -0.25450    0.00000  # c1,c,c1,oc
dihedral_coeff	31    0.71370    0.00000    0.26600    0.00000   -0.25450    0.00000  # c1,c,c1,oh
dihedral_coeff	32    0.00000    0.00000    0.00000    0.00000   -0.19320    0.00000  # c1,c,o_2,c_1
dihedral_coeff	33    0.00000    0.00000    0.03160    0.00000   -0.16810    0.00000  # c1,c1,c,hc
dihedral_coeff	34   -0.52030    0.00000   -0.30280    0.00000   -0.34500    0.00000  # c1,c1,oc,c1
dihedral_coeff	35    0.00000    0.00000    0.00000    0.00000    0.13000  180.00000  # c1,c1,oh,h
dihedral_coeff	36    0.53020    0.00000    0.00000    0.00000   -0.39660    0.00000  # c1,o3e,c1,hc
dihedral_coeff	37    0.53020    0.00000    0.00000    0.00000   -0.39660    0.00000  # c1,oc,c1,hc
dihedral_coeff	38   -0.02280    0.00000    0.02800    0.00000   -0.18630    0.00000  # c_1,c1,c,hc
dihedral_coeff	39    0.00000    0.00000    0.00000    0.00000   -0.19320    0.00000  # c_1,o_2,c,hc
dihedral_coeff	40    0.00000    0.00000    0.00000    0.00000    0.13000  180.00000  # h,oh,c1,hc
dihedral_coeff	41   -0.14320    0.00000    0.06170    0.00000   -0.10830    0.00000  # hc,c,c,hc
dihedral_coeff	42   -0.14320    0.00000    0.06170    0.00000   -0.10830    0.00000  # hc,c,c1,hc
dihedral_coeff	43   -0.14350    0.00000    0.25300    0.00000   -0.09050    0.00000  # hc,c,c1,o3e
dihedral_coeff	44   -0.14350    0.00000    0.25300    0.00000   -0.09050    0.00000  # hc,c,c1,oc
dihedral_coeff	45   -0.14350    0.00000    0.25300    0.00000   -0.09050    0.00000  # hc,c,c1,oh
dihedral_coeff	46    0.00000    0.00000    0.00000    0.00000   -0.25000    0.00000  # hc,c1,c,o_2
dihedral_coeff	47   -0.14320    0.00000    0.06170    0.00000   -0.10830    0.00000  # hc,c1,c1,hc
dihedral_coeff	48   -0.14350    0.00000    0.25300    0.00000   -0.09050    0.00000  # hc,c1,c1,o3e
dihedral_coeff	49   -0.14350    0.00000    0.25300    0.00000   -0.09050    0.00000  # hc,c1,c1,oc
dihedral_coeff	50   -0.14350    0.00000    0.25300    0.00000   -0.09050    0.00000  # hc,c1,c1,oh
dihedral_coeff	51   -0.18040    0.00000    0.00120    0.00000    0.03710    0.00000  # hc,c1,c_1,o_1
dihedral_coeff	52   -0.63590    0.00000    1.48070    0.00000   -0.04380    0.00000  # hc,c1,c_1,o_2
dihedral_coeff	53   -0.18200    0.00000   -0.10840    0.00000   -0.70470    0.00000  # oc,c1,c1,oc
dihedral_coeff	54   -0.18200    0.00000   -0.10840    0.00000   -0.70470    0.00000  # oc,c1,c1,oh

# MiddleBondTorsion Coeffs

dihedral_coeff	 1 mbt  -17.78700   -7.18770    0.00000    1.53000  # c,c,c,c1
dihedral_coeff	 2 mbt  -14.87900   -3.65810   -0.31380    1.53000  # c,c,c,hc
dihedral_coeff	 3 mbt  -17.78700   -7.18770    0.00000    1.53000  # c,c,c1,c
dihedral_coeff	 4 mbt  -17.78700   -7.18770    0.00000    1.53000  # c,c,c1,c1
dihedral_coeff	 5 mbt   -1.59450    0.22670   -0.69110    1.53000  # c,c,c1,c_1
dihedral_coeff	 6 mbt  -14.87900   -3.65810   -0.31380    1.53000  # c,c,c1,hc
dihedral_coeff	 7 mbt  -21.88420   -7.67640   -0.68680    1.53000  # c,c,c1,o3e
dihedral_coeff	 8 mbt  -21.88420   -7.67640   -0.68680    1.53000  # c,c,c1,oc
dihedral_coeff	 9 mbt  -17.78700   -7.18770    0.00000    1.53000  # c,c1,c,c1
dihedral_coeff	10 mbt  -14.87900   -3.65810   -0.31380    1.53000  # c,c1,c,hc
dihedral_coeff	11 mbt    0.00000    0.00000    0.00000    1.53000  # c,c1,c,o_2
dihedral_coeff	12 mbt  -17.78700   -7.18770    0.00000    1.53000  # c,c1,c1,c
dihedral_coeff	13 mbt  -14.87900   -3.65810   -0.31380    1.53000  # c,c1,c1,hc
dihedral_coeff	14 mbt  -21.88420   -7.67640   -0.68680    1.53000  # c,c1,c1,o3e
dihedral_coeff	15 mbt  -21.88420   -7.67640   -0.68680    1.53000  # c,c1,c1,oc
dihedral_coeff	16 mbt  -21.88420   -7.67640   -0.68680    1.53000  # c,c1,c1,oh
dihedral_coeff	17 mbt    0.33880   -0.10960    0.12190    1.52020  # c,c1,c_1,o_1
dihedral_coeff	18 mbt  -17.32800   -5.79000   -3.21140    1.52020  # c,c1,c_1,o_2
dihedral_coeff	19 mbt   -5.92880   -2.70070   -0.31750    1.42000  # c,c1,o3e,c1
dihedral_coeff	20 mbt   -5.92880   -2.70070   -0.31750    1.42000  # c,c1,oc,c1
dihedral_coeff	21 mbt    0.00000    0.00000    0.00000    1.42000  # c,c1,oh,h
dihedral_coeff	22 mbt    1.34450    3.55150   -4.92020    1.36830  # c,o_2,c_1,c1
dihedral_coeff	23 mbt    4.26000    0.00000    0.00000    1.36830  # c,o_2,c_1,o_1
dihedral_coeff	24 mbt  -17.78700   -7.18770    0.00000    1.53000  # c1,c,c,c1
dihedral_coeff	25 mbt  -14.87900   -3.65810   -0.31380    1.53000  # c1,c,c,hc
dihedral_coeff	26 mbt  -17.78700   -7.18770    0.00000    1.53000  # c1,c,c1,c1
dihedral_coeff	27 mbt   -1.59450    0.22670   -0.69110    1.53000  # c1,c,c1,c_1
dihedral_coeff	28 mbt  -14.87900   -3.65810   -0.31380    1.53000  # c1,c,c1,hc
dihedral_coeff	29 mbt  -21.88420   -7.67640   -0.68680    1.53000  # c1,c,c1,o3e
dihedral_coeff	30 mbt  -21.88420   -7.67640   -0.68680    1.53000  # c1,c,c1,oc
dihedral_coeff	31 mbt  -21.88420   -7.67640   -0.68680    1.53000  # c1,c,c1,oh
dihedral_coeff	32 mbt   -5.43500    0.00000    0.00000    1.43000  # c1,c,o_2,c_1
dihedral_coeff	33 mbt  -14.87900   -3.65810   -0.31380    1.53000  # c1,c1,c,hc
dihedral_coeff	34 mbt   -5.92880   -2.70070   -0.31750    1.42000  # c1,c1,oc,c1
dihedral_coeff	35 mbt    0.00000    0.00000    0.00000    1.42000  # c1,c1,oh,h
dihedral_coeff	36 mbt   -6.80070   -4.65460   -1.41010    1.42000  # c1,o3e,c1,hc
dihedral_coeff	37 mbt   -6.80070   -4.65460   -1.41010    1.42000  # c1,oc,c1,hc
dihedral_coeff	38 mbt   -3.50390    1.24580   -0.76100    1.53000  # c_1,c1,c,hc
dihedral_coeff	39 mbt    0.00000    0.00000    0.00000    1.43000  # c_1,o_2,c,hc
dihedral_coeff	40 mbt    0.00000    0.00000    0.00000    1.42000  # h,oh,c1,hc
dihedral_coeff	41 mbt  -14.26100   -0.53220   -0.48640    1.53000  # hc,c,c,hc
dihedral_coeff	42 mbt  -14.26100   -0.53220   -0.48640    1.53000  # hc,c,c1,hc
dihedral_coeff	43 mbt  -16.79750   -1.22960   -0.27500    1.53000  # hc,c,c1,o3e
dihedral_coeff	44 mbt  -16.79750   -1.22960   -0.27500    1.53000  # hc,c,c1,oc
dihedral_coeff	45 mbt  -16.79750   -1.22960   -0.27500    1.53000  # hc,c,c1,oh
dihedral_coeff	46 mbt    0.00000    0.00000    0.00000    1.53000  # hc,c1,c,o_2
dihedral_coeff	47 mbt  -14.26100   -0.53220   -0.48640    1.53000  # hc,c1,c1,hc
dihedral_coeff	48 mbt  -16.79750   -1.22960   -0.27500    1.53000  # hc,c1,c1,o3e
dihedral_coeff	49 mbt  -16.79750   -1.22960   -0.27500    1.53000  # hc,c1,c1,oc
dihedral_coeff	50 mbt  -16.79750   -1.22960   -0.27500    1.53000  # hc,c1,c1,oh
dihedral_coeff	51 mbt    0.23590    0.91390    0.95940    1.52020  # hc,c1,c_1,o_1
dihedral_coeff	52 mbt  -13.76860   -2.59590    1.19340    1.52020  # hc,c1,c_1,o_2
dihedral_coeff	53 mbt  -17.25850   -3.61570   -0.83640    1.53000  # oc,c1,c1,oc
dihedral_coeff	54 mbt  -17.25850   -3.61570   -0.83640    1.53000  # oc,c1,c1,oh

# EndBondTorsion Coeffs

dihedral_coeff	 1 ebt   -0.07320    0.00000    0.00000   -0.07320    0.00000    0.00000    1.53000    1.53000  # c,c,c,c1
dihedral_coeff	 2 ebt    0.08140    0.05910    0.22190    0.24860    0.24220   -0.09250    1.53000    1.10100  # c,c,c,hc
dihedral_coeff	 3 ebt   -0.07320    0.00000    0.00000   -0.07320    0.00000    0.00000    1.53000    1.53000  # c,c,c1,c
dihedral_coeff	 4 ebt   -0.07320    0.00000    0.00000   -0.07320    0.00000    0.00000    1.53000    1.53000  # c,c,c1,c1
dihedral_coeff	 5 ebt    0.00550    0.00600   -0.00090    0.00620   -0.00020    0.00360    1.53000    1.52020  # c,c,c1,c_1
dihedral_coeff	 6 ebt    0.08140    0.05910    0.22190    0.24860    0.24220   -0.09250    1.53000    1.10100  # c,c,c1,hc
dihedral_coeff	 7 ebt   -0.31900    0.44110   -0.71740    1.15380    0.84090   -0.91380    1.53000    1.42000  # c,c,c1,o3e
dihedral_coeff	 8 ebt   -0.31900    0.44110   -0.71740    1.15380    0.84090   -0.91380    1.53000    1.42000  # c,c,c1,oc
dihedral_coeff	 9 ebt   -0.07320    0.00000    0.00000   -0.07320    0.00000    0.00000    1.53000    1.53000  # c,c1,c,c1
dihedral_coeff	10 ebt    0.08140    0.05910    0.22190    0.24860    0.24220   -0.09250    1.53000    1.10100  # c,c1,c,hc
dihedral_coeff	11 ebt    0.00000    0.00000    0.00000    0.00000    0.00000    0.00000    1.53000    1.43000  # c,c1,c,o_2
dihedral_coeff	12 ebt   -0.07320    0.00000    0.00000   -0.07320    0.00000    0.00000    1.53000    1.53000  # c,c1,c1,c
dihedral_coeff	13 ebt    0.08140    0.05910    0.22190    0.24860    0.24220   -0.09250    1.53000    1.10100  # c,c1,c1,hc
dihedral_coeff	14 ebt   -0.31900    0.44110   -0.71740    1.15380    0.84090   -0.91380    1.53000    1.42000  # c,c1,c1,o3e
dihedral_coeff	15 ebt   -0.31900    0.44110   -0.71740    1.15380    0.84090   -0.91380    1.53000    1.42000  # c,c1,c1,oc
dihedral_coeff	16 ebt   -0.31900    0.44110   -0.71740    1.15380    0.84090   -0.91380    1.53000    1.42000  # c,c1,c1,oh
dihedral_coeff	17 ebt   -0.28100    0.08160   -0.15220    0.26540    0.05030    0.10460    1.53000    1.20200  # c,c1,c_1,o_1
dihedral_coeff	18 ebt    0.00000    0.00000    0.00000    0.00000    0.00000    0.00000    1.53000    1.36830  # c,c1,c_1,o_2
dihedral_coeff	19 ebt    0.47410    1.26350    0.55760   -0.24560    1.05170   -0.77950    1.53000    1.42000  # c,c1,o3e,c1
dihedral_coeff	20 ebt    0.47410    1.26350    0.55760   -0.24560    1.05170   -0.77950    1.53000    1.42000  # c,c1,oc,c1
dihedral_coeff	21 ebt    0.00000    0.00000    0.00000    0.00000    0.00000    0.00000    1.53000    0.96000  # c,c1,oh,h
dihedral_coeff	22 ebt    0.00000    0.00000    0.00000    0.00000    0.00000    0.00000    1.43000    1.52020  # c,o_2,c_1,c1
dihedral_coeff	23 ebt    0.00000    0.00000    0.00000    0.00000    0.00000    0.00000    1.43000    1.20200  # c,o_2,c_1,o_1
dihedral_coeff	24 ebt   -0.07320    0.00000    0.00000   -0.07320    0.00000    0.00000    1.53000    1.53000  # c1,c,c,c1
dihedral_coeff	25 ebt    0.24860    0.24220   -0.09250    0.08140    0.05910    0.22190    1.53000    1.10100  # c1,c,c,hc
dihedral_coeff	26 ebt   -0.07320    0.00000    0.00000   -0.07320    0.00000    0.00000    1.53000    1.53000  # c1,c,c1,c1
dihedral_coeff	27 ebt    0.00550    0.00600   -0.00090    0.00620   -0.00020    0.00360    1.53000    1.52020  # c1,c,c1,c_1
dihedral_coeff	28 ebt    0.24860    0.24220   -0.09250    0.08140    0.05910    0.22190    1.53000    1.10100  # c1,c,c1,hc
dihedral_coeff	29 ebt   -0.31900    0.44110   -0.71740    1.15380    0.84090   -0.91380    1.53000    1.42000  # c1,c,c1,o3e
dihedral_coeff	30 ebt   -0.31900    0.44110   -0.71740    1.15380    0.84090   -0.91380    1.53000    1.42000  # c1,c,c1,oc
dihedral_coeff	31 ebt   -0.31900    0.44110   -0.71740    1.15380    0.84090   -0.91380    1.53000    1.42000  # c1,c,c1,oh
dihedral_coeff	32 ebt    0.00000    0.00000    0.00000    0.00000    0.00000    0.00000    1.53000    1.36830  # c1,c,o_2,c_1
dihedral_coeff	33 ebt    0.24860    0.24220   -0.09250    0.08140    0.05910    0.22190    1.53000    1.10100  # c1,c1,c,hc
dihedral_coeff	34 ebt   -0.24560    1.05170   -0.77950    0.47410    1.26350    0.55760    1.53000    1.42000  # c1,c1,oc,c1
dihedral_coeff	35 ebt    0.00000    0.00000    0.00000    0.00000    0.00000    0.00000    1.53000    0.96000  # c1,c1,oh,h
dihedral_coeff	36 ebt   -0.16200    0.15640   -1.14080   -0.60540    1.33390    0.96480    1.42000    1.10100  # c1,o3e,c1,hc
dihedral_coeff	37 ebt   -0.16200    0.15640   -1.14080   -0.60540    1.33390    0.96480    1.42000    1.10100  # c1,oc,c1,hc
dihedral_coeff	38 ebt   -0.02040    0.36280   -0.44260   -0.00970   -0.03150   -0.07550    1.52020    1.10100  # c_1,c1,c,hc
dihedral_coeff	39 ebt    0.00000    0.00000    0.00000    0.00000    0.00000    0.00000    1.36830    1.10100  # c_1,o_2,c,hc
dihedral_coeff	40 ebt    0.00000    0.00000    0.00000    0.00000    0.00000    0.00000    0.96000    1.10100  # h,oh,c1,hc
dihedral_coeff	41 ebt    0.21300    0.31200    0.07770    0.21300    0.31200    0.07770    1.10100    1.10100  # hc,c,c,hc
dihedral_coeff	42 ebt    0.21300    0.31200    0.07770    0.21300    0.31200    0.07770    1.10100    1.10100  # hc,c,c1,hc
dihedral_coeff	43 ebt    0.96810    0.95510    0.04360    0.59030    0.66690    0.85840    1.10100    1.42000  # hc,c,c1,o3e
dihedral_coeff	44 ebt    0.96810    0.95510    0.04360    0.59030    0.66690    0.85840    1.10100    1.42000  # hc,c,c1,oc
dihedral_coeff	45 ebt    0.96810    0.95510    0.04360    0.59030    0.66690    0.85840    1.10100    1.42000  # hc,c,c1,oh
dihedral_coeff	46 ebt    0.00000    0.00000    0.00000    0.00000    0.00000    0.00000    1.10100    1.43000  # hc,c1,c,o_2
dihedral_coeff	47 ebt    0.21300    0.31200    0.07770    0.21300    0.31200    0.07770    1.10100    1.10100  # hc,c1,c1,hc
dihedral_coeff	48 ebt    0.96810    0.95510    0.04360    0.59030    0.66690    0.85840    1.10100    1.42000  # hc,c1,c1,o3e
dihedral_coeff	49 ebt    0.96810    0.95510    0.04360    0.59030    0.66690    0.85840    1.10100    1.42000  # hc,c1,c1,oc
dihedral_coeff	50 ebt    0.96810    0.95510    0.04360    0.59030    0.66690    0.85840    1.10100    1.42000  # hc,c1,c1,oh
dihedral_coeff	51 ebt   -0.22980    0.03540    0.38530    1.21430    0.28310    0.39160    1.10100    1.20200  # hc,c1,c_1,o_1
dihedral_coeff	52 ebt    0.00000    0.00000    0.00000    0.00000    0.00000    0.00000    1.10100    1.36830  # hc,c1,c_1,o_2
dihedral_coeff	53 ebt    1.01650    0.75530   -0.46090    1.01650    0.75530   -0.46090    1.42000    1.42000  # oc,c1,c1,oc
dihedral_coeff	54 ebt    1.01650    0.75530   -0.46090    1.01650    0.75530   -0.46090    1.42000    1.42000  # oc,c1,c1,oh

# AngleTorsion Coeffs

dihedral_coeff	 1 at    0.38860   -0.31390    0.13890    0.38860   -0.31390    0.13890  112.67000  112.67000  # c,c,c,c1
dihedral_coeff	 2 at    0.31130    0.45160   -0.19880   -0.24540    0.00000   -0.11360  112.67000  110.77000  # c,c,c,hc
dihedral_coeff	 3 at    0.38860   -0.31390    0.13890    0.38860   -0.31390    0.13890  112.67000  112.67000  # c,c,c1,c
dihedral_coeff	 4 at    0.38860   -0.31390    0.13890    0.38860   -0.31390    0.13890  112.67000  112.67000  # c,c,c1,c1
dihedral_coeff	 5 at    0.05150   -0.06740   -0.04740   -0.26070    0.32030   -0.22830  112.67000  108.52950  # c,c,c1,c_1
dihedral_coeff	 6 at    0.31130    0.45160   -0.19880   -0.24540    0.00000   -0.11360  112.67000  110.77000  # c,c,c1,hc
dihedral_coeff	 7 at    0.56230   -0.30410   -0.40150    0.96720   -0.75660   -1.23310  112.67000  111.27000  # c,c,c1,o3e
dihedral_coeff	 8 at    0.56230   -0.30410   -0.40150    0.96720   -0.75660   -1.23310  112.67000  111.27000  # c,c,c1,oc
dihedral_coeff	 9 at    0.38860   -0.31390    0.13890    0.38860   -0.31390    0.13890  112.67000  112.67000  # c,c1,c,c1
dihedral_coeff	10 at    0.31130    0.45160   -0.19880   -0.24540    0.00000   -0.11360  112.67000  110.77000  # c,c1,c,hc
dihedral_coeff	11 at    0.00000    0.00000    0.00000    0.00000    0.00000    0.00000  112.67000  107.41000  # c,c1,c,o_2
dihedral_coeff	12 at    0.38860   -0.31390    0.13890    0.38860   -0.31390    0.13890  112.67000  112.67000  # c,c1,c1,c
dihedral_coeff	13 at    0.31130    0.45160   -0.19880   -0.24540    0.00000   -0.11360  112.67000  110.77000  # c,c1,c1,hc
dihedral_coeff	14 at    0.56230   -0.30410   -0.40150    0.96720   -0.75660   -1.23310  112.67000  111.27000  # c,c1,c1,o3e
dihedral_coeff	15 at    0.56230   -0.30410   -0.40150    0.96720   -0.75660   -1.23310  112.67000  111.27000  # c,c1,c1,oc
dihedral_coeff	16 at    0.56230   -0.30410   -0.40150    0.96720   -0.75660   -1.23310  112.67000  111.27000  # c,c1,c1,oh
dihedral_coeff	17 at    0.67500    0.59650    0.67250    0.08850   -1.37030   -0.54520  108.52950  123.14510  # c,c1,c_1,o_1
dihedral_coeff	18 at    0.00000    0.00000    0.00000    0.00000    0.00000    0.00000  108.52950  100.31820  # c,c1,c_1,o_2
dihedral_coeff	19 at    0.56760    0.94500    0.07030   -2.74660    1.48770   -0.89550  111.27000  104.50000  # c,c1,o3e,c1
dihedral_coeff	20 at    0.56760    0.94500    0.07030   -2.74660    1.48770   -0.89550  111.27000  104.50000  # c,c1,oc,c1
dihedral_coeff	21 at    0.00000    0.00000    0.00000    0.00000    0.00000    0.00000  111.27000  109.00000  # c,c1,oh,h
dihedral_coeff	22 at    0.00000    0.00000    0.00000    0.00000    0.00000    0.00000  113.28800  100.31820  # c,o_2,c_1,c1
dihedral_coeff	23 at    0.00000    0.00000    0.00000    0.00000    0.00000    0.00000  113.28800  120.79700  # c,o_2,c_1,o_1
dihedral_coeff	24 at    0.38860   -0.31390    0.13890    0.38860   -0.31390    0.13890  112.67000  112.67000  # c1,c,c,c1
dihedral_coeff	25 at   -0.24540    0.00000   -0.11360    0.31130    0.45160   -0.19880  112.67000  110.77000  # c1,c,c,hc
dihedral_coeff	26 at    0.38860   -0.31390    0.13890    0.38860   -0.31390    0.13890  112.67000  112.67000  # c1,c,c1,c1
dihedral_coeff	27 at    0.05150   -0.06740   -0.04740   -0.26070    0.32030   -0.22830  112.67000  108.52950  # c1,c,c1,c_1
dihedral_coeff	28 at   -0.24540    0.00000   -0.11360    0.31130    0.45160   -0.19880  112.67000  110.77000  # c1,c,c1,hc
dihedral_coeff	29 at    0.56230   -0.30410   -0.40150    0.96720   -0.75660   -1.23310  112.67000  111.27000  # c1,c,c1,o3e
dihedral_coeff	30 at    0.56230   -0.30410   -0.40150    0.96720   -0.75660   -1.23310  112.67000  111.27000  # c1,c,c1,oc
dihedral_coeff	31 at    0.56230   -0.30410   -0.40150    0.96720   -0.75660   -1.23310  112.67000  111.27000  # c1,c,c1,oh
dihedral_coeff	32 at    0.00000    0.00000    0.00000    0.00000    0.00000    0.00000  107.41000  113.28800  # c1,c,o_2,c_1
dihedral_coeff	33 at   -0.24540    0.00000   -0.11360    0.31130    0.45160   -0.19880  112.67000  110.77000  # c1,c1,c,hc
dihedral_coeff	34 at   -2.74660    1.48770   -0.89550    0.56760    0.94500    0.07030  111.27000  104.50000  # c1,c1,oc,c1
dihedral_coeff	35 at    0.00000    0.00000    0.00000    0.00000    0.00000    0.00000  111.27000  109.00000  # c1,c1,oh,h
dihedral_coeff	36 at   -0.77770    0.43400   -0.66530   -1.82340    1.63930    0.51440  104.50000  108.72800  # c1,o3e,c1,hc
dihedral_coeff	37 at   -0.77770    0.43400   -0.66530   -1.82340    1.63930    0.51440  104.50000  108.72800  # c1,oc,c1,hc
dihedral_coeff	38 at   -0.74660   -0.94480   -0.63210    0.01620    1.42110   -1.40920  108.52950  110.77000  # c_1,c1,c,hc
dihedral_coeff	39 at    0.00000    0.00000    0.00000    0.00000    0.00000    0.00000  113.28800  107.68800  # c_1,o_2,c,hc
dihedral_coeff	40 at    0.00000    0.00000    0.00000    0.00000    0.00000    0.00000  109.00000  108.72800  # h,oh,c1,hc
dihedral_coeff	41 at   -0.80850    0.55690   -0.24660   -0.80850    0.55690   -0.24660  110.77000  110.77000  # hc,c,c,hc
dihedral_coeff	42 at   -0.80850    0.55690   -0.24660   -0.80850    0.55690   -0.24660  110.77000  110.77000  # hc,c,c1,hc
dihedral_coeff	43 at    2.36680    2.49200   -1.01220   -0.18920    0.49180    0.72730  110.77000  111.27000  # hc,c,c1,o3e
dihedral_coeff	44 at    2.36680    2.49200   -1.01220   -0.18920    0.49180    0.72730  110.77000  111.27000  # hc,c,c1,oc
dihedral_coeff	45 at    2.36680    2.49200   -1.01220   -0.18920    0.49180    0.72730  110.77000  111.27000  # hc,c,c1,oh
dihedral_coeff	46 at    0.00000    0.00000    0.00000    0.00000    0.00000    0.00000  110.77000  107.41000  # hc,c1,c,o_2
dihedral_coeff	47 at   -0.80850    0.55690   -0.24660   -0.80850    0.55690   -0.24660  110.77000  110.77000  # hc,c1,c1,hc
dihedral_coeff	48 at    2.36680    2.49200   -1.01220   -0.18920    0.49180    0.72730  110.77000  111.27000  # hc,c1,c1,o3e
dihedral_coeff	49 at    2.36680    2.49200   -1.01220   -0.18920    0.49180    0.72730  110.77000  111.27000  # hc,c1,c1,oc
dihedral_coeff	50 at    2.36680    2.49200   -1.01220   -0.18920    0.49180    0.72730  110.77000  111.27000  # hc,c1,c1,oh
dihedral_coeff	51 at   -1.49460    0.73080   -0.20830    9.12990   -0.48470    0.35820  107.73360  123.14510  # hc,c1,c_1,o_1
dihedral_coeff	52 at    0.00000    0.00000    0.00000    0.00000    0.00000    0.00000  107.73360  100.31820  # hc,c1,c_1,o_2
dihedral_coeff	53 at    0.55110    0.97370   -0.66730    0.55110    0.97370   -0.66730  111.27000  111.27000  # oc,c1,c1,oc
dihedral_coeff	54 at    0.55110    0.97370   -0.66730    0.55110    0.97370   -0.66730  111.27000  111.27000  # oc,c1,c1,oh

# AngleAngleTorsion Coeffs

dihedral_coeff	 1 aat  -22.04500  112.67000  112.67000  # c,c,c,c1
dihedral_coeff	 2 aat  -16.16400  112.67000  110.77000  # c,c,c,hc
dihedral_coeff	 3 aat  -22.04500  112.67000  112.67000  # c,c,c1,c
dihedral_coeff	 4 aat  -22.04500  112.67000  112.67000  # c,c,c1,c1
dihedral_coeff	 5 aat   -0.38010  112.67000  108.52950  # c,c,c1,c_1
dihedral_coeff	 6 aat  -16.16400  112.67000  110.77000  # c,c,c1,hc
dihedral_coeff	 7 aat  -29.04200  112.67000  111.27000  # c,c,c1,o3e
dihedral_coeff	 8 aat  -29.04200  112.67000  111.27000  # c,c,c1,oc
dihedral_coeff	 9 aat  -22.04500  112.67000  112.67000  # c,c1,c,c1
dihedral_coeff	10 aat  -16.16400  112.67000  110.77000  # c,c1,c,hc
dihedral_coeff	11 aat    0.00000  112.67000  107.41000  # c,c1,c,o_2
dihedral_coeff	12 aat  -22.04500  112.67000  112.67000  # c,c1,c1,c
dihedral_coeff	13 aat  -16.16400  112.67000  110.77000  # c,c1,c1,hc
dihedral_coeff	14 aat  -29.04200  112.67000  111.27000  # c,c1,c1,o3e
dihedral_coeff	15 aat  -29.04200  112.67000  111.27000  # c,c1,c1,oc
dihedral_coeff	16 aat  -29.04200  112.67000  111.27000  # c,c1,c1,oh
dihedral_coeff	17 aat   -8.01900  108.52950  123.14510  # c,c1,c_1,o_1
dihedral_coeff	18 aat    0.00000  108.52950  100.31820  # c,c1,c_1,o_2
dihedral_coeff	19 aat  -19.00590  111.27000  104.50000  # c,c1,o3e,c1
dihedral_coeff	20 aat  -19.00590  111.27000  104.50000  # c,c1,oc,c1
dihedral_coeff	21 aat    0.00000  111.27000  109.00000  # c,c1,oh,h
dihedral_coeff	22 aat    0.00000  113.28800  100.31820  # c,o_2,c_1,c1
dihedral_coeff	23 aat    0.00000  113.28800  120.79700  # c,o_2,c_1,o_1
dihedral_coeff	24 aat  -22.04500  112.67000  112.67000  # c1,c,c,c1
dihedral_coeff	25 aat  -16.16400  112.67000  110.77000  # c1,c,c,hc
dihedral_coeff	26 aat  -22.04500  112.67000  112.67000  # c1,c,c1,c1
dihedral_coeff	27 aat   -0.38010  112.67000  108.52950  # c1,c,c1,c_1
dihedral_coeff	28 aat  -16.16400  112.67000  110.77000  # c1,c,c1,hc
dihedral_coeff	29 aat  -29.04200  112.67000  111.27000  # c1,c,c1,o3e
dihedral_coeff	30 aat  -29.04200  112.67000  111.27000  # c1,c,c1,oc
dihedral_coeff	31 aat  -29.04200  112.67000  111.27000  # c1,c,c1,oh
dihedral_coeff	32 aat    0.00000  107.41000  113.28800  # c1,c,o_2,c_1
dihedral_coeff	33 aat  -16.16400  112.67000  110.77000  # c1,c1,c,hc
dihedral_coeff	34 aat  -19.00590  111.27000  104.50000  # c1,c1,oc,c1
dihedral_coeff	35 aat    0.00000  111.27000  109.00000  # c1,c1,oh,h
dihedral_coeff	36 aat  -16.44380  104.50000  108.72800  # c1,o3e,c1,hc
dihedral_coeff	37 aat  -16.44380  104.50000  108.72800  # c1,oc,c1,hc
dihedral_coeff	38 aat   -5.36240  108.52950  110.77000  # c_1,c1,c,hc
dihedral_coeff	39 aat    0.00000  113.28800  107.68800  # c_1,o_2,c,hc
dihedral_coeff	40 aat    0.00000  109.00000  108.72800  # h,oh,c1,hc
dihedral_coeff	41 aat  -12.56400  110.77000  110.77000  # hc,c,c,hc
dihedral_coeff	42 aat  -12.56400  110.77000  110.77000  # hc,c,c1,hc
dihedral_coeff	43 aat  -20.20060  110.77000  111.27000  # hc,c,c1,o3e
dihedral_coeff	44 aat  -20.20060  110.77000  111.27000  # hc,c,c1,oc
dihedral_coeff	45 aat  -20.20060  110.77000  111.27000  # hc,c,c1,oh
dihedral_coeff	46 aat    0.00000  110.77000  107.41000  # hc,c1,c,o_2
dihedral_coeff	47 aat  -12.56400  110.77000  110.77000  # hc,c1,c1,hc
dihedral_coeff	48 aat  -20.20060  110.77000  111.27000  # hc,c1,c1,o3e
dihedral_coeff	49 aat  -20.20060  110.77000  111.27000  # hc,c1,c1,oc
dihedral_coeff	50 aat  -20.20060  110.77000  111.27000  # hc,c1,c1,oh
dihedral_coeff	51 aat  -15.34960  107.73360  123.14510  # hc,c1,c_1,o_1
dihedral_coeff	52 aat    0.00000  107.73360  100.31820  # hc,c1,c_1,o_2
dihedral_coeff	53 aat  -14.04840  111.27000  111.27000  # oc,c1,c1,oc
dihedral_coeff	54 aat  -14.04840  111.27000  111.27000  # oc,c1,c1,oh

# BondBond13 Coeffs

dihedral_coeff	 1 bb13    0.00000    1.53000    1.53000  # c,c,c,c1
dihedral_coeff	 2 bb13    0.00000    1.53000    1.10100  # c,c,c,hc
dihedral_coeff	 3 bb13    0.00000    1.53000    1.53000  # c,c,c1,c
dihedral_coeff	 4 bb13    0.00000    1.53000    1.53000  # c,c,c1,c1
dihedral_coeff	 5 bb13    0.00000    1.53000    1.52020  # c,c,c1,c_1
dihedral_coeff	 6 bb13    0.00000    1.53000    1.10100  # c,c,c1,hc
dihedral_coeff	 7 bb13    0.00000    1.53000    1.42000  # c,c,c1,o3e
dihedral_coeff	 8 bb13    0.00000    1.53000    1.42000  # c,c,c1,oc
dihedral_coeff	 9 bb13    0.00000    1.53000    1.53000  # c,c1,c,c1
dihedral_coeff	10 bb13    0.00000    1.53000    1.10100  # c,c1,c,hc
dihedral_coeff	11 bb13    0.00000    1.53000    1.43000  # c,c1,c,o_2
dihedral_coeff	12 bb13    0.00000    1.53000    1.53000  # c,c1,c1,c
dihedral_coeff	13 bb13    0.00000    1.53000    1.10100  # c,c1,c1,hc
dihedral_coeff	14 bb13    0.00000    1.53000    1.42000  # c,c1,c1,o3e
dihedral_coeff	15 bb13    0.00000    1.53000    1.42000  # c,c1,c1,oc
dihedral_coeff	16 bb13    0.00000    1.53000    1.42000  # c,c1,c1,oh
dihedral_coeff	17 bb13    0.00000    1.53000    1.20200  # c,c1,c_1,o_1
dihedral_coeff	18 bb13    0.00000    1.53000    1.36830  # c,c1,c_1,o_2
dihedral_coeff	19 bb13    0.00000    1.53000    1.42000  # c,c1,o3e,c1
dihedral_coeff	20 bb13    0.00000    1.53000    1.42000  # c,c1,oc,c1
dihedral_coeff	21 bb13    0.00000    1.53000    0.96000  # c,c1,oh,h
dihedral_coeff	22 bb13    0.00000    1.43000    1.52020  # c,o_2,c_1,c1
dihedral_coeff	23 bb13    0.00000    1.43000    1.20200  # c,o_2,c_1,o_1
dihedral_coeff	24 bb13    0.00000    1.53000    1.53000  # c1,c,c,c1
dihedral_coeff	25 bb13    0.00000    1.53000    1.10100  # c1,c,c,hc
dihedral_coeff	26 bb13    0.00000    1.53000    1.53000  # c1,c,c1,c1
dihedral_coeff	27 bb13    0.00000    1.53000    1.52020  # c1,c,c1,c_1
dihedral_coeff	28 bb13    0.00000    1.53000    1.10100  # c1,c,c1,hc
dihedral_coeff	29 bb13    0.00000    1.53000    1.42000  # c1,c,c1,o3e
dihedral_coeff	30 bb13    0.00000    1.53000    1.42000  # c1,c,c1,oc
dihedral_coeff	31 bb13    0.00000    1.53000    1.42000  # c1,c,c1,oh
dihedral_coeff	32 bb13    0.00000    1.53000    1.36830  # c1,c,o_2,c_1
dihedral_coeff	33 bb13    0.00000    1.53000    1.10100  # c1,c1,c,hc
dihedral_coeff	34 bb13    0.00000    1.53000    1.42000  # c1,c1,oc,c1
dihedral_coeff	35 bb13    0.00000    1.53000    0.96000  # c1,c1,oh,h
dihedral_coeff	36 bb13    0.00000    1.42000    1.10100  # c1,o3e,c1,hc
dihedral_coeff	37 bb13    0.00000    1.42000    1.10100  # c1,oc,c1,hc
dihedral_coeff	38 bb13    0.00000    1.52020    1.10100  # c_1,c1,c,hc
dihedral_coeff	39 bb13    0.00000    1.36830    1.10100  # c_1,o_2,c,hc
dihedral_coeff	40 bb13    0.00000    0.96000    1.10100  # h,oh,c1,hc
dihedral_coeff	41 bb13    0.00000    1.10100    1.10100  # hc,c,c,hc
dihedral_coeff	42 bb13    0.00000    1.10100    1.10100  # hc,c,c1,hc
dihedral_coeff	43 bb13    0.00000    1.10100    1.42000  # hc,c,c1,o3e
dihedral_coeff	44 bb13    0.00000    1.10100    1.42000  # hc,c,c1,oc
dihedral_coeff	45 bb13    0.00000    1.10100    1.42000  # hc,c,c1,oh
dihedral_coeff	46 bb13    0.00000    1.10100    1.43000  # hc,c1,c,o_2
dihedral_coeff	47 bb13    0.00000    1.10100    1.10100  # hc,c1,c1,hc
dihedral_coeff	48 bb13    0.00000    1.10100    1.42000  # hc,c1,c1,o3e
dihedral_coeff	49 bb13    0.00000    1.10100    1.42000  # hc,c1,c1,oc
dihedral_coeff	50 bb13    0.00000    1.10100    1.42000  # hc,c1,c1,oh
dihedral_coeff	51 bb13    0.00000    1.10100    1.20200  # hc,c1,c_1,o_1
dihedral_coeff	52 bb13    0.00000    1.10100    1.36830  # hc,c1,c_1,o_2
dihedral_coeff	53 bb13    0.00000    1.42000    1.42000  # oc,c1,c1,oc
dihedral_coeff	54 bb13    0.00000    1.42000    1.42000  # oc,c1,c1,oh

# Improper Coeffs

improper_coeff	 1    0.00000    0.00000  # c,c,c,hc
improper_coeff	 2    0.00000    0.00000  # c,c,c1,hc
improper_coeff	 3    0.00000    0.00000  # c,c,hc,c1
improper_coeff	 4    0.00000    0.00000  # c,c,hc,hc
improper_coeff	 5    0.00000    0.00000  # c,c1,c1,hc
improper_coeff	 6    0.00000    0.00000  # c,c1,hc,hc
improper_coeff	 7    0.00000    0.00000  # c,c1,hc,o_2
improper_coeff	 8    0.00000    0.00000  # c,c1,o_2,hc
improper_coeff	 9    0.00000    0.00000  # c,hc,hc,o_2
improper_coeff	10    0.00000    0.00000  # c1,c,c,c
improper_coeff	11    0.00000    0.00000  # c1,c,c,c_1
improper_coeff	12    0.00000    0.00000  # c1,c,c,hc
improper_coeff	13    0.00000    0.00000  # c1,c,c,oc
improper_coeff	14    0.00000    0.00000  # c1,c,c1,hc
improper_coeff	15    0.00000    0.00000  # c1,c,c1,o3e
improper_coeff	16    0.00000    0.00000  # c1,c,c1,oc
improper_coeff	17    0.00000    0.00000  # c1,c,c1,oh
improper_coeff	18    0.00000    0.00000  # c1,c,c_1,hc
improper_coeff	19    0.00000    0.00000  # c1,c,hc,c1
improper_coeff	20    0.00000    0.00000  # c1,c,hc,c_1
improper_coeff	21    0.00000    0.00000  # c1,c,hc,o3e
improper_coeff	22    0.00000    0.00000  # c1,c,hc,oc
improper_coeff	23    0.00000    0.00000  # c1,c,hc,oh
improper_coeff	24    0.00000    0.00000  # c1,c,o3e,hc
improper_coeff	25    0.00000    0.00000  # c1,c,oc,c1
improper_coeff	26    0.00000    0.00000  # c1,c,oc,hc
improper_coeff	27    0.00000    0.00000  # c1,c1,hc,oc
improper_coeff	28    0.00000    0.00000  # c1,c1,o3e,hc
improper_coeff	29    0.00000    0.00000  # c1,c1,oc,hc
improper_coeff	30    0.00000    0.00000  # c1,c1,oh,hc
improper_coeff	31   46.92640    0.00000  # c_1,c1,o_1,o_2
improper_coeff	32   46.92640    0.00000  # c_1,c1,o_2,o_1

# AngleAngle Coeffs

improper_coeff	 1 aa    0.00000    0.00000    0.11840  112.67000  110.77000  110.77000  # c,c,c,hc
improper_coeff	 2 aa    0.00000   -1.31990    0.00000  112.67000  110.77000  110.77000  # c,c,c1,hc
improper_coeff	 3 aa    0.00000   -1.31990    0.00000  110.77000  112.67000  110.77000  # c,c,hc,c1
improper_coeff	 4 aa    0.00000   -0.48250    0.00000  110.77000  110.77000  107.66000  # c,c,hc,hc
improper_coeff	 5 aa   -1.31990   -1.31990    0.11840  112.67000  110.77000  110.77000  # c,c1,c1,hc
improper_coeff	 6 aa    0.27380   -0.48250    0.27380  110.77000  110.77000  107.66000  # c,c1,hc,hc
improper_coeff	 7 aa    0.00000    0.00000    0.00000  110.77000  107.41000  107.68800  # c,c1,hc,o_2
improper_coeff	 8 aa    0.00000    0.00000    0.00000  107.41000  110.77000  107.68800  # c,c1,o_2,hc
improper_coeff	 9 aa    0.00000    0.00000    0.00000  107.66000  107.68800  107.68800  # c,hc,hc,o_2
improper_coeff	10 aa   -0.17290   -0.17290   -0.17290  112.67000  112.67000  112.67000  # c1,c,c,c
improper_coeff	11 aa    0.00000    0.00000    0.00000  112.67000  108.52950  108.52950  # c1,c,c,c_1
improper_coeff	12 aa    0.00000    0.00000    0.11840  112.67000  110.77000  110.77000  # c1,c,c,hc
improper_coeff	13 aa   -0.83300   -0.83300   -3.57440  112.67000  111.27000  111.27000  # c1,c,c,oc
improper_coeff	14 aa    0.00000   -1.31990    0.00000  112.67000  110.77000  110.77000  # c1,c,c1,hc
improper_coeff	15 aa   -0.83300   -0.83300    0.00000  112.67000  111.27000  111.27000  # c1,c,c1,o3e
improper_coeff	16 aa   -0.83300   -0.83300    0.00000  112.67000  111.27000  111.27000  # c1,c,c1,oc
improper_coeff	17 aa   -0.83300   -0.83300    0.00000  112.67000  111.27000  111.27000  # c1,c,c1,oh
improper_coeff	18 aa    0.00000   -1.82020    0.00000  108.52950  110.77000  107.73360  # c1,c,c_1,hc
improper_coeff	19 aa    0.00000   -1.31990    0.00000  110.77000  112.67000  110.77000  # c1,c,hc,c1
improper_coeff	20 aa    0.00000   -1.82020    0.00000  110.77000  108.52950  107.73360  # c1,c,hc,c_1
improper_coeff	21 aa    3.91770    2.59260    0.00000  110.77000  111.27000  108.72800  # c1,c,hc,o3e
improper_coeff	22 aa    3.91770    2.59260    0.00000  110.77000  111.27000  108.72800  # c1,c,hc,oc
improper_coeff	23 aa    3.91770    2.59260    0.00000  110.77000  111.27000  108.72800  # c1,c,hc,oh
improper_coeff	24 aa    0.00000    2.59260    3.91770  111.27000  110.77000  108.72800  # c1,c,o3e,hc
improper_coeff	25 aa    0.00000   -0.83300   -0.83300  111.27000  112.67000  111.27000  # c1,c,oc,c1
improper_coeff	26 aa    0.00000    2.59260    3.91770  111.27000  110.77000  108.72800  # c1,c,oc,hc
improper_coeff	27 aa    3.91770    2.59260    0.16890  110.77000  111.27000  108.72800  # c1,c1,hc,oc
improper_coeff	28 aa    0.16890    2.59260    3.91770  111.27000  110.77000  108.72800  # c1,c1,o3e,hc
improper_coeff	29 aa    0.16890    2.59260    3.91770  111.27000  110.77000  108.72800  # c1,c1,oc,hc
improper_coeff	30 aa    0.16890    2.59260    3.91770  111.27000  110.77000  108.72800  # c1,c1,oh,hc
improper_coeff	31 aa    0.00000    0.00000    0.00000  123.14510  100.31820  120.79700  # c_1,c1,o_1,o_2
improper_coeff	32 aa    0.00000    0.00000    0.00000  100.31820  123.14510  120.79700  # c_1,c1,o_2,o_1


fix		1 all npt temp 300 300 1 y 0 0 100 z 0 0 100 drag 1
variable srate equal 1.0e8
variable srate1 equal "v_srate / 1.0e12"
fix		2 all deform 1 x erate ${srate1} units box remap x
fix		2 all deform 1 x erate 0.0001 units box remap x

variable tmp equal "lx"
variable L0 equal ${tmp}
variable L0 equal 37.6658958732064

variable strain equal "(lx - v_L0)/v_L0"
variable p1 equal "v_strain"
variable p2 equal "-pxx/10000"
variable p3 equal "-pyy/10000"
variable p4 equal "-pzz/10000"
fix def1 all print 100 "${p1} ${p2} ${p3} ${p4}" file Al_SC_100.def1.txt screen no

fix b1 all bond/break 1 1 3.5
fix b2 all bond/break 1 2 3.5
fix b3 all bond/break 1 3 3.5
fix b4 all bond/break 1 4 3.5
fix b5 all bond/break 1 5 3.5
fix b6 all bond/break 1 6 3.5
fix b7 all bond/break 1 7 3.5
fix b8 all bond/break 1 8 3.5
fix b9 all bond/break 1 9 3.5
fix b10 all bond/break 1 10 3.5
fix b11 all bond/break 1 11 3.5
fix b12 all bond/break 1 12 3.5

variable bb equal (f_b1[1]+f_b2[1]+f_b3[1]+f_b4[1]+f_b5[1]+f_b6[1]+f_b7[1]+f_b9[1]+f_b8[1]+f_b10[1])

thermo_style	custom step v_strain temp v_p2 v_p3 v_p4 ke pe press vol v_bb
thermo 1

dump 4a all custom 100 dump.pos id type x y z vx vy vz mol

run 100000
PPPM initialization ...
  using 12-bit tables for long-range coulomb (../kspace.cpp:342)
  G vector (1/distance) = 0.15373212
  grid = 6 6 6
  stencil order = 5
  estimated absolute RMS force accuracy = 0.28183109
  estimated relative force accuracy = 0.00084872597
  using double precision KISS FFT
  3d grid and FFT values/proc = 616 36
Generated 45 of 45 mixed pair_coeff terms from sixthpower/geometric mixing rule
Neighbor list info ...
  update: every = 1 steps, delay = 0 steps, check = yes
  max neighbors/atom: 2000, page size: 100000
  master list distance cutoff = 12
  ghost atom cutoff = 12
  binsize = 6, bins = 7 7 7
  1 neighbor lists, perpetual/occasional/extra = 1 0 0
  (1) pair lj/class2/coul/long, perpetual
      attributes: half, newton on
      pair build: half/bin/newton
      stencil: half/bin/3d
      bin: standard
WARNING: Inconsistent image flags (../domain.cpp:815)
  PPPM/cg optimization cutoff: 1e-05
  Total charged atoms: 100.0%
  Min/max charged atoms/proc: 100.0% 100.0%
Per MPI rank memory allocation (min/avg/max) = 22.2 | 22.21 | 22.21 Mbytes
   Step        v_strain         Temp           v_p2           v_p3           v_p4          KinEng         PotEng         Press          Volume          v_bb     
         0  -5.6593057e-16  616.26499      0.66935636     0.33828537     0.23466839     9094.8329      19505.779     -4141.0337      53437.349      0            
         1   0.0001         615.40109      0.59317297     0.32430302     0.18788279     9082.0835      19518.107     -3684.5293      53438.695      0            
         2   0.0002         609.4814       0.51617787     0.28411724     0.16572767     8994.7207      19616.332     -3220.0759      53433.007      0            
         3   0.0003         607.35307      0.45403724     0.24899009     0.19416384     8963.3108      19651.108     -2990.6373      53421.292      0            
         4   0.0004         612.14201      0.41976984     0.23510663     0.27533701     9033.986       19576.252     -3100.7116      53403.768      0            
         5   0.0005         618.5684       0.39496479     0.23381091     0.35700198     9128.8265      19477.07      -3285.9256      53379.631      0            
         6   0.0006         622.28014      0.35564193     0.22424569     0.3695664      9183.6045      19422.014     -3164.8467      53347.932      0            
         7   0.0007         622.50782      0.28434109     0.18934618     0.28101327     9186.9645      19418.032     -2515.6685      53308.843      0            
         8   0.0008         619.42588      0.17405373     0.13249988     0.099912005    9141.4813      19465.099     -1354.8854      53264.317      0            
         9   0.0009         616.9312       0.037871926    0.064592854   -0.12840708     9104.6649      19506.833      86.47434       53217.866      0            
        10   0.001          620.11854     -0.088885183   -0.0076907628  -0.35307801     9151.7036      19458.165      1498.8465      53173.709      0            
        11   0.0011         627.13852     -0.18572606    -0.096228373   -0.54302346     9255.3044      19348.266      2749.9263      53135.927      0            
        12   0.0012         630.21187     -0.2663743     -0.21560115    -0.67423626     9300.6609      19301.485      3854.039       53108.177      0            
        13   0.0013         625.45822     -0.34228891    -0.34665849    -0.71573463     9230.5065      19376.054      4682.2734      53093.583      0            
        14   0.0014         618.99188     -0.39823349    -0.44000249    -0.64627147     9135.0764      19480.827      4948.3581      53094.092      0            
        15   0.0015         618.26046     -0.40973263    -0.45567928    -0.47174003     9124.2821      19489.732      4457.1731      53109.572      0            
        16   0.0016         621.29924     -0.38437053    -0.3978462     -0.24437845     9169.1284      19440.358      3421.984       53137.409      0            
        17   0.0017         622.15851     -0.33913629    -0.29311106    -0.040847004    9181.8094      19425.819      2243.6478      53173.338      0            
        18   0.0018         619.6992      -0.27666106    -0.17207274     0.079279313    9145.515       19462.993      1231.5149      53212.885      0            
        19   0.0019         615.55787     -0.1960887     -0.05707385     0.10390181     9084.3973      19526.96       497.5358       53252.615      0            
        20   0.002          612.37575     -0.097220513    0.040101969    0.062886122    9037.4356      19579.761     -19.22526       53290.585      0            
        21   0.0021         614.66589      0.016877856    0.12229958     0.0065567553   9071.2333      19547.481     -485.78064      53326.064      0            
        22   0.0022         622.19861      0.13328753     0.19254873    -0.025641124    9182.4012      19430.463     -1000.6504      53358.763      0            
        23   0.0023         628.01789      0.221233       0.24579766    -0.018547691    9268.2822      19343.179     -1494.9432      53388.243      0            
        24   0.0024         627.36072      0.26529657     0.28340295     0.03131133     9258.5836      19356.373     -1933.3695      53413.774      0            
        25   0.0025         623.07668      0.28618398     0.31772208     0.12291044     9195.3598      19428.008     -2422.7217      53434.279      0            
        26   0.0026         621.20427      0.33155878     0.35453648     0.24665454     9167.7267      19457.699     -3109.166       53448.19       0            
        27   0.0027         622.81187      0.41692353     0.3825954      0.36990954     9191.4517      19431.621     -3898.0949      53453.516      0            
        28   0.0028         624.09253      0.51960606     0.38845558     0.43970793     9210.3516      19408.881     -4492.5652      53448.465      0            
        29   0.0029         623.37775      0.60371506     0.36322046     0.41022895     9199.8029      19421.049     -4590.5483      53432.359      0            
        30   0.003          621.97205      0.64652789     0.30401641     0.27901567     9179.0577      19442.098     -4098.5332      53406.356      0            
        31   0.0031         620.15715      0.63365999     0.21353116     0.083581988    9152.2733      19470.822     -3102.5771      53373.464      0            
        32   0.0032         619.46604      0.57609014     0.10302158    -0.12621162     9142.0739      19486.099     -1843.0003      53337.915      0            
        33   0.0033         622.75642      0.49233809    -0.0092512799  -0.30195463     9190.6333      19434.442     -603.77393      53304.251      0            
        34   0.0034         627.57864      0.39637736    -0.12035959    -0.41653221     9261.7996      19359.202      468.38147      53276.381      0            
        35   0.0035         628.96167      0.30085137    -0.23257147    -0.45975252     9282.2104      19342.211      1304.9088      53257.179      0            
        36   0.0036         626.05151      0.21879811    -0.32437585    -0.42132515     9239.2622      19390.169      1756.3429      53248.424      0            
        37   0.0037         622.50891      0.16048199    -0.36463561    -0.3049659      9186.9807      19447.255      1697.0651      53250.422      0            
        38   0.0038         621.43454      0.12942147    -0.34276905    -0.13868888     9171.125       19462.096      1173.4549      53261.701      0            
        39   0.0039         622.06792      0.11175088    -0.27918597     0.026258738    9180.4725      19453.916      470.58786      53279.319      0            
        40   0.004          622.38211      0.091899305   -0.19915975     0.13665696     9185.1093      19449.078     -97.988376      53299.906      0            
        41   0.0041         620.93364      0.056174721   -0.12213002     0.15954399     9163.7327      19471.947     -311.9623       53320.742      0            
        42   0.0042         617.82719      0.0044276058  -0.064886526    0.10020104     9117.8879      19519.806     -132.47373      53340.455      0            
        43   0.0043         614.82147     -0.057666595   -0.031450439    0.00058433065  9073.5294      19567.4        295.10901      53359.123      0            
        44   0.0044         614.88206     -0.11672024    -0.0069617394  -0.088602739    9074.4236      19568.161      707.61571      53377.701      0            
        45   0.0045         618.30196     -0.16789987     0.031803012   -0.13092957     9124.8945      19514.393      890.0881       53397.087      0            
        46   0.0046         621.24201     -0.21670281     0.091423988   -0.11119764     9168.2838      19468.647      788.25487      53417.308      0            
        47   0.0047         621.47922     -0.26661334     0.15458008    -0.027434658    9171.7845      19466.909      464.89305      53437.247      0            
        48   0.0048         620.42391     -0.30988447     0.20277008     0.10906991     9156.2102      19485.252     -6.5184019      53454.897      0            
        49   0.0049         620.7151      -0.32925402     0.2175798      0.26491744     9160.5076      19479.723     -510.81072      53467.799      0            
        50   0.005          622.48612     -0.30986266     0.18312701     0.38271113     9186.6443      19455.691     -853.25161      53473.774      0            
        51   0.0051         624.95688     -0.26085747     0.10053925     0.41369359     9223.1078      19420.359     -844.58458      53471.924      0            
        52   0.0052         626.97936     -0.21487618    -0.017834276    0.3364658      9252.9555      19387.647     -345.85114      53463.24       0            
        53   0.0053         626.40664     -0.19870766    -0.1556907      0.15825871     9244.5033      19401.035      653.79883      53450.662      0            
        54   0.0054         623.431       -0.20844388    -0.28737427    -0.075785467    9200.5888      19449.024      1905.3454      53438.683      0            
        55   0.0055         620.17816     -0.22357555    -0.38636134    -0.3008747      9152.5834      19500.144      3036.0386      53432.319      0            
        56   0.0056         618.87129     -0.22155517    -0.43213431    -0.45646849     9133.2967      19520.151      3700.5266      53435.835      0            
        57   0.0057         620.45954     -0.18377009    -0.42262239    -0.51599998     9156.736       19497.897      3741.3082      53451.676      0            
        58   0.0058         623.02904     -0.10565823    -0.36521968    -0.4830259      9194.6566      19456.573      3179.6794      53480.136      0            
        59   0.0059         622.88342     -0.0026714585  -0.27306032    -0.3791465      9192.5076      19458.004      2182.9276      53519.571      0            
        60   0.006          620.04225      0.10404817    -0.15600121    -0.22449792     9150.5777      19504.53       921.50318      53566.916      0            
        61   0.0061         618.43635      0.21180499    -0.027598078   -0.051712901    9126.8779      19528.357     -441.64672      53618.125      0            
        62   0.0062         619.10527      0.31542709     0.090470063    0.097971666    9136.7498      19520.1       -1679.5627      53668.846      0            
        63   0.0063         620.72599      0.39591851     0.18575318     0.19516105     9160.6683      19497.244     -2589.4425      53715.327      0            
        64   0.0064         621.67267      0.434575       0.25564346     0.23477871     9174.6394      19482.424     -3083.3239      53755.004      0            
        65   0.0065         621.79165      0.42748843     0.30049052     0.23181163     9176.3953      19483.839     -3199.3019      53786.579      0            
        66   0.0066         622.44026      0.39229008     0.32107683     0.21432421     9185.9675      19476.849     -3092.3037      53809.759      0            
        67   0.0067         623.72066      0.34886626     0.32843897     0.20843638     9204.8637      19460.003     -2952.472       53824.808      0            
        68   0.0068         626.13908      0.30680424     0.35056044     0.22535445     9240.5546      19425.425     -2942.3971      53832.004      0            
        69   0.0069         630.37482      0.26906621     0.40125043     0.25944683     9303.0657      19358.094     -3099.2116      53831.085      0            
        70   0.007          633.58842      0.22587803     0.44456883     0.30082511     9350.4919      19306.2       -3237.5733      53821.153      0            
        71   0.0071         632.04675      0.1706226      0.43215077     0.33311608     9327.7399      19331.081     -3119.6315      53801.346      0            
        72   0.0072         627.41663      0.11484057     0.34946624     0.33106643     9259.4087      19400.701     -2651.2441      53771.749      0            
        73   0.0073         623.09568      0.072631922    0.21431466     0.26740063     9195.6401      19463.873     -1847.824       53733.929      0            
        74   0.0074         619.94661      0.033026963    0.057363398    0.13477212     9149.1662      19510.484     -750.5416       53691.017      0            
        75   0.0075         618.28045     -0.038177401   -0.092515939   -0.044377411    9124.577       19533.585      583.56917      53647.302      0            
        76   0.0076         617.44066     -0.15389043    -0.22425531    -0.22728597     9112.1835      19549.133      2018.1057      53607.44       0            
        77   0.0077         617.50211     -0.28724638    -0.32121671    -0.37499104     9113.0903      19552.337      3278.1804      53575.665      0            
        78   0.0078         619.47715     -0.3968342     -0.3641031     -0.46527423     9142.2379      19525.625      4087.3718      53555.028      0            
        79   0.0079         622.53745     -0.45397264    -0.3433716     -0.48706219     9187.4018      19479.806      4281.3548      53546.898      0            
        80   0.008          625.4752      -0.44932665    -0.27048942    -0.44280171     9230.7571      19436.704      3875.3926      53550.775      0            
        81   0.0081         627.39689     -0.38870072    -0.16277878    -0.34424704     9259.1174      19406.496      2985.7551      53564.568      0            
        82   0.0082         626.29155     -0.29499975    -0.043247713   -0.20566637     9242.8047      19420.497      1813.0461      53585.055      0            
        83   0.0083         621.65455     -0.1899928      0.068611051   -0.056073266    9174.3719      19494.053      591.51673      53608.419      0            
        84   0.0084         616.99172     -0.076668035    0.15754132     0.065159611    9105.558       19565.876     -486.77632      53630.939      0            
        85   0.0085         614.37803      0.041580707    0.20699907     0.12561997     9066.9851      19605.135     -1247.3325      53649.735      0            
        86   0.0086         613.16285      0.14586325     0.20994751     0.12482111     9049.0516      19618.98      -1602.1062      53663.42       0            
        87   0.0087         612.66319      0.2135755      0.17449868     0.080395188    9041.6776      19629.174     -1561.5645      53672.152      0            
        88   0.0088         613.3717       0.2490202      0.12669269     0.022838496    9052.1337      19618.618     -1328.5046      53677.223      0            
        89   0.0089         616.54168      0.26940235     0.081707318   -0.020053839    9098.9163      19569.224     -1103.5194      53680.227      0            
        90   0.009          621.26435      0.28899009     0.049247156   -0.025682262    9168.6135      19498.456     -1041.8499      53682.462      0            
        91   0.0091         625.47317      0.3159209      0.041643321    0.0069399353   9230.7271      19435.436     -1215.0139      53684.482      0            
        92   0.0092         627.84103      0.34347182     0.062654737    0.065794157    9265.672       19397.891     -1573.069       53685.947      0            
        93   0.0093         628.32482      0.35714814     0.084307095    0.13349105     9272.8117      19392.991     -1916.4876      53685.763      0            
        94   0.0094         627.24875      0.35413144     0.070403221    0.18903945     9256.9312      19410.089     -2045.247       53682.743      0            
        95   0.0095         625.75447      0.34197872     0.0027930521   0.19892012     9234.8785      19435.55      -1812.3063      53676.403      0            
        96   0.0096         625.32909      0.32664194    -0.10823045     0.13898234     9228.6009      19439.678     -1191.3128      53667.66       0            
        97   0.0097         624.95163      0.28611004    -0.23544272     0.010564321    9223.0303      19447.267     -204.10546      53658.968      0            
        98   0.0098         623.96096      0.19244213    -0.34591894    -0.14682464     9208.4099      19465.471      1001.0048      53653.879      0            
        99   0.0099         622.83374      0.051482349   -0.41686773    -0.27985471     9191.7744      19480.572      2150.8003      53655.992      0            
       100   0.01           621.91335     -0.091062285   -0.44174399    -0.35586825     9178.1913      19492.676      2962.2484      53667.91       0            
       101   0.0101         621.83683     -0.19259797    -0.41218722    -0.36420125     9177.062       19494.234      3229.9548      53690.737      0            
       102   0.0102         622.56729     -0.24244425    -0.32438298    -0.30242718     9187.8423      19482.142      2897.5147      53723.851      0            
       103   0.0103         623.12178     -0.25601985    -0.1925725     -0.182758       9196.0254      19473.861      2104.5012      53764.858      0            
       104   0.0104         622.63965     -0.24609948    -0.046343389   -0.024236768    9188.9101      19478.123      1055.5988      53809.997      0            
       105   0.0105         621.6441      -0.21755253     0.077525739    0.14382848     9174.2177      19495.19      -12.672293      53854.853      0            
       106   0.0106         621.29129     -0.17487876     0.16469165     0.29009218     9169.0109      19503.313     -933.0169       53895.314      0            
       107   0.0107         622.30909     -0.12668412     0.21137637     0.37753356     9184.0316      19485.232     -1540.7527      53928.227      0            
       108   0.0108         623.22795     -0.088591518    0.21519077     0.37988316     9197.5922      19473.141     -1688.2747      53951.947      0            
       109   0.0109         622.78547     -0.065654825    0.18631336     0.31127272     9191.0621      19481.152     -1439.7709      53966.689      0            
       110   0.011          622.62049     -0.044523766    0.13878352     0.2041482      9188.6273      19482.666     -994.69321      53974.12       0            
       111   0.0111         623.36881     -0.011280613    0.090661554    0.092408444    9199.671       19469.158     -572.63128      53976.659      0            
       112   0.0112         624.16463      0.032336971    0.057666195    0.0043682244   9211.4157      19458.395     -314.5713       53976.714      0            
       113   0.0113         625.1155       0.078583774    0.054022843   -0.039410556    9225.4486      19447.678     -310.65354      53976.069      0            
       114   0.0114         625.93104      0.12964873     0.07831499    -0.037873347    9237.4844      19434.146     -566.96791      53975.412      0            
       115   0.0115         624.35717      0.18655178     0.10963167    -0.01538811     9214.2572      19457.785     -935.98447      53974.375      0            
       116   0.0116         620.33195      0.24515755     0.12329762     0.0024861937   9154.8531      19520.352     -1236.4712      53972.211      0            
       117   0.0117         616.78842      0.2949412      0.11524848    -0.0058198082   9102.5577      19573.843     -1347.8996      53968.505      0            
       118   0.0118         615.29251      0.33207761     0.093660588   -0.061930183    9080.4811      19595.928     -1212.6934      53963.533      0            
       119   0.0119         615.47066      0.35840732     0.063961876   -0.17386737     9083.1101      19591.547     -828.33941      53958.422      0            
       120   0.012          616.17389      0.37252561     0.022467906   -0.31186964     9093.4885      19582.79      -277.07958      53955.17       0            
       121   0.0121         617.95892      0.36884238    -0.024745327   -0.41727897     9119.8319      19558.019      243.93971      53956.251      0            
       122   0.0122         621.80031      0.34366653    -0.068509115   -0.44042591     9176.5231      19500.198      550.89497      53963.691      0            
       123   0.0123         625.26862      0.30380276    -0.099788513   -0.3687911      9227.7084      19448.477      549.25618      53978.257      0            
       124   0.0124         626.60391      0.27155561    -0.11196219    -0.21824108     9247.4147      19429.249      195.49221      53999.186      0            
       125   0.0125         628.26386      0.26290331    -0.10311181    -0.018243406    9271.9121      19407.155     -471.82699      54024.348      0            
       126   0.0126         630.50311      0.27447719    -0.070434587    0.19173531     9304.9589      19370.372     -1319.2597      54050.671      0            
       127   0.0127         630.49125      0.28368339    -0.020391277    0.35941799     9304.7839      19374.041     -2075.7003      54074.684      0            
       128   0.0128         628.03487      0.27810366     0.034846406    0.45510444     9268.5327      19414.995     -2560.1817      54093.364      0            
       129   0.0129         624.70388      0.25692366     0.07944497     0.47237541     9219.3739      19467.836     -2695.8135      54104.723      0            
       130   0.013          622.24962      0.21924045     0.1058411      0.41200517     9183.1541      19503.138     -2456.9557      54108.091      0            
       131   0.0131         621.06306      0.15989244     0.10886247     0.28755764     9165.6428      19518.159     -1854.3752      54104.174      0            
       132   0.0132         620.65226      0.083237033    0.095961022    0.1232891      9159.5802      19526.03      -1008.2905      54094.897      0            
       133   0.0133         621.89525     -0.00016942998  0.079298232   -0.040243252    9177.9242      19507.049     -129.6185       54082.923      0            
       134   0.0134         623.93528     -0.085544473    0.063999395   -0.17030988     9208.0309      19473.948      639.51653      54070.88       0            
       135   0.0135         624.70092     -0.17955645     0.052764903   -0.24573646     9219.3302      19468.666      1241.76        54060.826      0            
       136   0.0136         625.96432     -0.27053087     0.060330368   -0.25792467     9237.9756      19456.902      1560.4172      54053.931      0            
       137   0.0137         630.10905     -0.33253185     0.09407215    -0.22321637     9299.1433      19393.38       1538.9202      54050.17       0            
       138   0.0138         633.86655     -0.34943342     0.12709147    -0.1772265      9354.5965      19336.136      1331.8948      54048.486      0            
       139   0.0139         633.83164     -0.32143644     0.12561357    -0.1508679      9354.0813      19340.887      1155.6359      54047.702      0            
       140   0.014          632.26163     -0.26018676     0.085453645   -0.15243777     9330.9112      19369.239      1090.5696      54047.442      0            
       141   0.0141         632.58763     -0.1777661      0.025444518   -0.17408644     9335.7222      19365.199      1088.0267      54048.283      0            
       142   0.0142         634.28912     -0.086108204   -0.03943833    -0.20248958     9360.8329      19330.679      1093.4537      54051.351      0            
       143   0.0143         634.38461      0.0034522927  -0.11328313    -0.22601037     9362.2421      19332.359      1119.4707      54057.912      0            
       144   0.0144         633.07695      0.085243402   -0.18281103    -0.21665395     9342.9437      19354.51       1047.4053      54069.252      0            
       145   0.0145         631.34819      0.14678971    -0.23049352    -0.15364266     9317.4306      19379.467      791.1549       54086.099      0            
       146   0.0146         627.40889      0.1800592     -0.24368729    -0.036200983    9259.2945      19437.95       332.76358      54108.091      0            
       147   0.0147         621.49707      0.20404848    -0.21965929     0.1167966      9172.0479      19535.397     -337.28596      54133.609      0            
       148   0.0148         618.48285      0.25841792    -0.16208158     0.2897189      9127.564       19583.438     -1286.8508      54160.042      0            
       149   0.0149         620.34034      0.34934841    -0.085403648    0.45046727     9154.9769      19551.348     -2381.3734      54184.086      0            
       150   0.015          622.09744      0.44443385    -0.0050865891   0.55296848     9180.9081      19522.951     -3307.7191      54202.426      0            
       151   0.0151         620.51077      0.50901389     0.068320331    0.57439558     9157.4921      19550.164     -3839.0993      54212.614      0            
       152   0.0152         618.76497      0.53969535     0.12706692     0.52284191     9131.7275      19579.848     -3965.3472      54213.519      0            
       153   0.0153         619.99942      0.54637055     0.1594452      0.41586076     9149.9456      19556.696     -3738.9217      54205.291      0            
       154   0.0154         622.35682      0.52422908     0.15527014     0.25957755     9184.7361      19519.922     -3130.2559      54189.248      0            
       155   0.0155         623.78091      0.47126844     0.12456709     0.072368223    9205.7528      19500.162     -2227.3459      54167.905      0            
       156   0.0156         625.40984      0.39553478     0.082518151   -0.10906119     9229.7925      19471.828     -1229.9725      54144.532      0            
       157   0.0157         625.99188      0.29989006     0.030689529   -0.24837262     9238.3823      19459.912     -274.02323      54122.38       0            
       158   0.0158         623.44868      0.19006517    -0.033353666   -0.31895833     9200.8498      19502.213      540.82275      54104.136      0            
       159   0.0159         621.69997      0.096435032   -0.094309225   -0.31574305     9175.0423      19536.113      1045.3908      54091.592      0            
       160   0.016          625.43499      0.050711626   -0.12461762    -0.2586989      9230.1636      19476.045      1108.683       54085.39       0            
       161   0.0161         630.80464      0.041413061   -0.121421      -0.19091927     9309.409       19390.061      903.09069      54084.959      0            
       162   0.0162         631.57837      0.033067961   -0.1045194     -0.14809347     9320.8277      19383.383      731.81636      54089.124      0            
       163   0.0163         629.08182      0.017665285   -0.090195495   -0.13851416     9283.9835      19425.202      703.48124      54096.906      0            
       164   0.0164         627.80421      0.0055985939  -0.082819197   -0.15598522     9265.1286      19444.042      777.35275      54107.867      0            
       165   0.0165         627.40757     -0.0060544536  -0.083870641   -0.18533972     9259.275       19446.556      917.5494       54122.066      0            
       166   0.0166         624.98267     -0.029508788   -0.09990913    -0.20788288     9223.4883      19484.051      1124.336       54139.85       0            
       167   0.0167         621.29965     -0.062848449   -0.12949368    -0.20680646     9169.1343      19542.743      1330.4953      54161.678      0            
       168   0.0168         618.42661     -0.10002465    -0.15818839    -0.16938536     9126.734       19580.225      1425.328       54187.853      0            
       169   0.0169         614.973       -0.1478082     -0.17370053    -0.099786099    9075.7658      19629.579      1404.3161      54218.141      0            
       170   0.017          609.94478     -0.1955512     -0.16796068    -0.0047726004   9001.5593      19707.683      1227.6149      54251.665      0            
       171   0.0171         607.56074     -0.21467407    -0.13809053     0.10317134     8966.3756      19749.78       831.97751      54286.898      0            
       172   0.0172         610.97229     -0.19228345    -0.082083921    0.20102325     9016.7233      19694.757      244.48042      54321.819      0            
       173   0.0173         615.69467     -0.15430299    -0.010848816    0.25109395     9086.4161      19617.691     -286.47379      54354.226      0            
       174   0.0174         616.82916     -0.13128012     0.060994685    0.23392901     9103.1589      19607.675     -545.4786       54382.443      0            
       175   0.0175         616.9428      -0.11435366     0.12645333     0.17159248     9104.836       19613.416     -612.30717      54405.795      0            
       176   0.0176         620.2005      -0.082464476    0.17885202     0.095752683    9152.9132      19564.194     -640.46741      54424.369      0            
       177   0.0177         625.17575     -0.036545944    0.20808579     0.019603967    9226.3378      19487.904     -637.14605      54438.634      0            
       178   0.0178         628.20252      0.0089056453   0.21403114    -0.051521857    9271.0069      19441.954     -571.3831       54449.383      0            
       179   0.0179         629.15654      0.045549333    0.19992391    -0.10163672     9285.0862      19429.712     -479.45507      54457.652      0            
       180   0.018          629.27068      0.071501362    0.16729159    -0.1090192      9286.7708      19428.038     -432.57918      54464.432      0            
       181   0.0181         627.90463      0.085542113    0.11900919    -0.073882955    9266.6106      19450         -435.56117      54470.341      0            
       182   0.0182         626.09022      0.1004429      0.070053816   -0.022902347    9239.8336      19482.254     -491.98123      54475.589      0            
       183   0.0183         626.39713      0.13354771     0.039026212    0.019760872    9244.3629      19472.727     -641.11598      54480.166      0            
       184   0.0184         626.97234      0.16857558     0.023919814    0.04008551     9252.8519      19461.092     -775.26967      54483.923      0            
       185   0.0185         624.02267      0.1786328      0.016730305    0.033918993    9209.3207      19507.657     -764.27365      54486.803      0            
       186   0.0186         618.85739      0.16388833     0.011111669    0.0098026885   9133.0915      19589.776     -616.00895      54489.023      0            
       187   0.0187         616.91032      0.1490257      0.0096551645  -0.01432807     9104.3567      19620.967     -481.17598      54491.025      0            
       188   0.0188         619.97979      0.14273448     0.011854741   -0.021513722    9149.6559      19569.321     -443.585        54493.184      0            
       189   0.0189         622.85722      0.1239316      0.007826676   -0.009395914    9192.121       19523.356     -407.87454      54495.567      0            
       190   0.019          622.15982      0.083881018   -0.011560637    0.015914353    9181.8288      19540.161     -294.11578      54498.05       0            
       191   0.0191         620.72131      0.03717071    -0.034016478    0.052583256    9160.5992      19562.588     -185.79163      54500.545      0            
       192   0.0192         620.09733     -0.00071144089 -0.050109268    0.098729569    9151.3905      19572.078     -159.6962       54502.845      0            
       193   0.0193         619.38126     -0.01418229    -0.055378357    0.1456706      9140.8228      19583.106     -253.69984      54504.522      0            
       194   0.0194         619.47056      0.0014013481  -0.04999044     0.18177957     9142.1407      19584.435     -443.96826      54504.989      0            
       195   0.0195         620.87993      0.032974658   -0.036063394    0.200815       9162.9402      19562.348     -659.08755      54503.673      0            
       196   0.0196         620.84217      0.055353949   -0.018232781    0.19022658     9162.3829      19562.531     -757.82583      54500.141      0            
       197   0.0197         617.64601      0.05764168     0.00047429739  0.14433292     9115.214       19614.84      -674.82965      54494.338      0            
       198   0.0198         614.14617      0.058706551    0.023160066    0.07735121     9063.5634      19672.374     -530.72609      54486.709      0            
[...]
WARNING:   1st atom: 0 -nan -nan -nan
WARNING:   2nd atom: 0 -nan -nan -nan
WARNING:   3rd atom: 0 -nan -nan -nan
WARNING:   4th atom: 0 -nan -nan -nan (../dihedral_class2.cpp:210)
WARNING: Dihedral problem: 0 13410 1160 1159 1142 1143
WARNING:   1st atom: 0 -nan -nan -nan
WARNING:   2nd atom: 0 -nan -nan -nan
WARNING:   3rd atom: 0 -nan -nan -nan
WARNING:   4th atom: 0 -nan -nan -nan (../dihedral_class2.cpp:210)
WARNING: Dihedral problem: 0 13410 1148 1145 1143 1142
WARNING:   1st atom: 0 -nan -nan -nan
WARNING:   2nd atom: 0 -nan -nan -nan
WARNING:   3rd atom: 0 -nan -nan -nan
WARNING:   4th atom: 0 -nan -nan -nan (../dihedral_class2.cpp:210)
WARNING: Dihedral problem: 0 13410 1148 1145 1143 1144
WARNING:   1st atom: 0 -nan -nan -nan
WARNING:   2nd atom: 0 -nan -nan -nan
WARNING:   3rd atom: 0 -nan -nan -nan
WARNING:   4th atom: 0 -nan -nan -nan (../dihedral_class2.cpp:210)
WARNING: Dihedral problem: 0 13410 1146 1145 1143 1144
WARNING:   1st atom: 0 -nan -nan -nan
WARNING:   2nd atom: 0 -nan -nan -nan
WARNING:   3rd atom: 0 -nan -nan -nan
WARNING:   4th atom: 0 -nan -nan -nan (../dihedral_class2.cpp:210)
WARNING: Dihedral problem: 0 13410 1147 1145 1143 1144
WARNING:   1st atom: 0 -nan -nan -nan
WARNING:   2nd atom: 0 -nan -nan -nan
WARNING:   3rd atom: 0 -nan -nan -nan
WARNING:   4th atom: 0 -nan -nan -nan (../dihedral_class2.cpp:210)
WARNING: Dihedral problem: 0 13410 1148 1145 1143 1155
WARNING:   1st atom: 0 -nan -nan -nan
WARNING:   2nd atom: 0 -nan -nan -nan
WARNING:   3rd atom: 0 -nan -nan -nan
WARNING:   4th atom: 0 -nan -nan -nan (../dihedral_class2.cpp:210)
WARNING: Dihedral problem: 0 13410 1143 1145 1148 1149
WARNING:   1st atom: 0 -nan -nan -nan
WARNING:   2nd atom: 0 -nan -nan -nan
WARNING:   3rd atom: 0 -nan -nan -nan
WARNING:   4th atom: 0 -nan -nan -nan (../dihedral_class2.cpp:210)
WARNING: Dihedral problem: 0 13410 1153 1155 1143 1142
WARNING:   1st atom: 0 -nan -nan -nan
WARNING:   2nd atom: 0 -nan -nan -nan
WARNING:   3rd atom: 0 -nan -nan -nan
WARNING:   4th atom: 0 -nan -nan -nan (../dihedral_class2.cpp:210)
WARNING: Dihedral problem: 0 13410 1153 1155 1143 1144
WARNING:   1st atom: 0 -nan -nan -nan
WARNING:   2nd atom: 0 -nan -nan -nan
WARNING:   3rd atom: 0 -nan -nan -nan
WARNING:   4th atom: 0 -nan -nan -nan (../dihedral_class2.cpp:210)
WARNING: Dihedral problem: 0 13410 1156 1155 1143 1144
WARNING:   1st atom: 0 -nan -nan -nan
WARNING:   2nd atom: 0 -nan -nan -nan
WARNING:   3rd atom: 0 -nan -nan -nan
WARNING:   4th atom: 0 -nan -nan -nan (../dihedral_class2.cpp:210)
WARNING: Dihedral problem: 0 13410 1157 1155 1143 1144
WARNING:   1st atom: 0 -nan -nan -nan
WARNING:   2nd atom: 0 -nan -nan -nan
WARNING:   3rd atom: 0 -nan -nan -nan
WARNING:   4th atom: 0 -nan -nan -nan (../dihedral_class2.cpp:210)
WARNING: Dihedral problem: 0 13410 1143 1155 1153 1158
WARNING:   1st atom: 0 -nan -nan -nan
WARNING:   2nd atom: 0 -nan -nan -nan
WARNING:   3rd atom: 0 -nan -nan -nan
WARNING:   4th atom: 0 -nan -nan -nan (../dihedral_class2.cpp:210)
WARNING: Dihedral problem: 0 13410 1156 1155 1153 1158
WARNING:   1st atom: 0 -nan -nan -nan
WARNING:   2nd atom: 0 -nan -nan -nan
WARNING:   3rd atom: 0 -nan -nan -nan
WARNING:   4th atom: 0 -nan -nan -nan (../dihedral_class2.cpp:210)
WARNING: Dihedral problem: 0 13410 1157 1155 1153 1158
WARNING:   1st atom: 0 -nan -nan -nan
WARNING:   2nd atom: 0 -nan -nan -nan
WARNING:   3rd atom: 0 -nan -nan -nan
WARNING:   4th atom: 0 -nan -nan -nan (../dihedral_class2.cpp:210)
WARNING: Dihedral problem: 0 13410 1143 1155 1153 1151
WARNING:   1st atom: 0 -nan -nan -nan
WARNING:   2nd atom: 0 -nan -nan -nan
WARNING:   3rd atom: 0 -nan -nan -nan
WARNING:   4th atom: 0 -nan -nan -nan (../dihedral_class2.cpp:210)
WARNING: Dihedral problem: 0 13410 1145 1143 1142 1141
WARNING:   1st atom: 0 -nan -nan -nan
WARNING:   2nd atom: 0 -nan -nan -nan
WARNING:   3rd atom: 0 -nan -nan -nan
WARNING:   4th atom: 0 -nan -nan -nan (../dihedral_class2.cpp:210)
WARNING: Dihedral problem: 0 13410 1155 1143 1142 1141
WARNING:   1st atom: 0 -nan -nan -nan
WARNING:   2nd atom: 0 -nan -nan -nan
WARNING:   3rd atom: 0 -nan -nan -nan
WARNING:   4th atom: 0 -nan -nan -nan (../dihedral_class2.cpp:210)
WARNING: Dihedral problem: 0 13410 1144 1143 1142 1141
WARNING:   1st atom: 0 -nan -nan -nan
WARNING:   2nd atom: 0 -nan -nan -nan
WARNING:   3rd atom: 0 -nan -nan -nan
WARNING:   4th atom: 0 -nan -nan -nan (../dihedral_class2.cpp:210)
WARNING: Dihedral problem: 0 13410 1142 1143 1145 1146
WARNING:   1st atom: 0 -nan -nan -nan
WARNING:   2nd atom: 0 -nan -nan -nan
WARNING:   3rd atom: 0 -nan -nan -nan
WARNING:   4th atom: 0 -nan -nan -nan (../dihedral_class2.cpp:210)
WARNING: Dihedral problem: 0 13410 1142 1143 1145 1147
WARNING:   1st atom: 0 -nan -nan -nan
WARNING:   2nd atom: 0 -nan -nan -nan
WARNING:   3rd atom: 0 -nan -nan -nan
WARNING:   4th atom: 0 -nan -nan -nan (../dihedral_class2.cpp:210)
WARNING: Dihedral problem: 0 13410 1142 1143 1155 1156
WARNING:   1st atom: 0 -nan -nan -nan
WARNING:   2nd atom: 0 -nan -nan -nan
WARNING:   3rd atom: 0 -nan -nan -nan
WARNING:   4th atom: 0 -nan -nan -nan (../dihedral_class2.cpp:210)
WARNING: Dihedral problem: 0 13410 1142 1143 1155 1157
WARNING:   1st atom: 0 -nan -nan -nan
WARNING:   2nd atom: 0 -nan -nan -nan
WARNING:   3rd atom: 0 -nan -nan -nan
WARNING:   4th atom: 0 -nan -nan -nan (../dihedral_class2.cpp:210)
WARNING: Dihedral problem: 0 13410 1144 1143 1142 1159
WARNING:   1st atom: 0 -nan -nan -nan
WARNING:   2nd atom: 0 -nan -nan -nan
WARNING:   3rd atom: 0 -nan -nan -nan
WARNING:   4th atom: 0 -nan -nan -nan (../dihedral_class2.cpp:210)
WARNING: Dihedral problem: 0 13410 1145 1143 1142 1159
WARNING:   1st atom: 0 -nan -nan -nan
WARNING:   2nd atom: 0 -nan -nan -nan
WARNING:   3rd atom: 0 -nan -nan -nan
WARNING:   4th atom: 0 -nan -nan -nan (../dihedral_class2.cpp:210)
WARNING: Dihedral problem: 0 13410 1145 1143 1155 1153
WARNING:   1st atom: 0 -nan -nan -nan
WARNING:   2nd atom: 0 -nan -nan -nan
WARNING:   3rd atom: 0 -nan -nan -nan
WARNING:   4th atom: 0 -nan -nan -nan (../dihedral_class2.cpp:210)
WARNING: Dihedral problem: 0 13410 1145 1143 1155 1156
WARNING:   1st atom: 0 -nan -nan -nan
WARNING:   2nd atom: 0 -nan -nan -nan
WARNING:   3rd atom: 0 -nan -nan -nan
WARNING:   4th atom: 0 -nan -nan -nan (../dihedral_class2.cpp:210)
WARNING: Dihedral problem: 0 13410 1145 1143 1155 1157
WARNING:   1st atom: 0 -nan -nan -nan
WARNING:   2nd atom: 0 -nan -nan -nan
WARNING:   3rd atom: 0 -nan -nan -nan
WARNING:   4th atom: 0 -nan -nan -nan (../dihedral_class2.cpp:210)
WARNING: Dihedral problem: 0 13410 1155 1143 1145 1146
WARNING:   1st atom: 0 -nan -nan -nan
WARNING:   2nd atom: 0 -nan -nan -nan
WARNING:   3rd atom: 0 -nan -nan -nan
WARNING:   4th atom: 0 -nan -nan -nan (../dihedral_class2.cpp:210)
WARNING: Dihedral problem: 0 13410 1155 1143 1145 1147
WARNING:   1st atom: 0 -nan -nan -nan
WARNING:   2nd atom: 0 -nan -nan -nan
WARNING:   3rd atom: 0 -nan -nan -nan
WARNING:   4th atom: 0 -nan -nan -nan (../dihedral_class2.cpp:210)
WARNING: Dihedral problem: 0 13410 1155 1143 1142 1159
WARNING:   1st atom: 0 -nan -nan -nan
WARNING:   2nd atom: 0 -nan -nan -nan
WARNING:   3rd atom: 0 -nan -nan -nan
WARNING:   4th atom: 0 -nan -nan -nan (../dihedral_class2.cpp:210)
WARNING: Dihedral problem: 0 13410 1155 1153 1158 1551
WARNING:   1st atom: 0 -nan -nan -nan
WARNING:   2nd atom: 0 -nan -nan -nan
WARNING:   3rd atom: 0 -nan -nan -nan
WARNING:   4th atom: 0 -nan -nan -nan (../dihedral_class2.cpp:210)
WARNING: Dihedral problem: 0 13410 1151 1153 1158 1551
WARNING:   1st atom: 0 -nan -nan -nan
WARNING:   2nd atom: 0 -nan -nan -nan
WARNING:   3rd atom: 0 -nan -nan -nan
WARNING:   4th atom: 0 -nan -nan -nan (../dihedral_class2.cpp:210)
WARNING: Dihedral problem: 0 13410 1158 1153 1151 1406
WARNING:   1st atom: 0 -nan -nan -nan
WARNING:   2nd atom: 0 -nan -nan -nan
WARNING:   3rd atom: 0 -nan -nan -nan
WARNING:   4th atom: 0 -nan -nan -nan (../dihedral_class2.cpp:210)
WARNING: Dihedral problem: 0 13410 1155 1153 1151 1148
WARNING:   1st atom: 0 -nan -nan -nan
WARNING:   2nd atom: 0 -nan -nan -nan
WARNING:   3rd atom: 0 -nan -nan -nan
WARNING:   4th atom: 0 -nan -nan -nan (../dihedral_class2.cpp:210)
WARNING: Dihedral problem: 0 13410 1155 1153 1151 1406
WARNING:   1st atom: 0 -nan -nan -nan
WARNING:   2nd atom: 0 -nan -nan -nan
WARNING:   3rd atom: 0 -nan -nan -nan
WARNING:   4th atom: 0 -nan -nan -nan (../dihedral_class2.cpp:210)
WARNING: Dihedral problem: 0 13410 1151 1153 1155 1156
WARNING:   1st atom: 0 -nan -nan -nan
WARNING:   2nd atom: 0 -nan -nan -nan
WARNING:   3rd atom: 0 -nan -nan -nan
WARNING:   4th atom: 0 -nan -nan -nan (../dihedral_class2.cpp:210)
WARNING: Dihedral problem: 0 13410 1151 1153 1155 1157
WARNING:   1st atom: 0 -nan -nan -nan
WARNING:   2nd atom: 0 -nan -nan -nan
WARNING:   3rd atom: 0 -nan -nan -nan
WARNING:   4th atom: 0 -nan -nan -nan (../dihedral_class2.cpp:210)
WARNING: Dihedral problem: 0 13410 1376 1373 1371 1370
WARNING:   1st atom: 0 -nan -nan -nan
WARNING:   2nd atom: 0 -nan -nan -nan
WARNING:   3rd atom: 0 -nan -nan -nan
WARNING:   4th atom: 0 -nan -nan -nan (../dihedral_class2.cpp:210)
WARNING: Dihedral problem: 0 13410 1376 1373 1371 1383
WARNING:   1st atom: 0 -nan -nan -nan
WARNING:   2nd atom: 0 -nan -nan -nan
WARNING:   3rd atom: 0 -nan -nan -nan
WARNING:   4th atom: 0 -nan -nan -nan (../dihedral_class2.cpp:210)
WARNING: Dihedral problem: 0 13410 1371 1373 1376 1377
WARNING:   1st atom: 0 -nan -nan -nan
WARNING:   2nd atom: 0 -nan -nan -nan
WARNING:   3rd atom: 0 -nan -nan -nan
WARNING:   4th atom: 0 -nan -nan -nan (../dihedral_class2.cpp:210)
WARNING: Dihedral problem: 0 13410 1371 1373 1376 1378
WARNING:   1st atom: 0 -nan -nan -nan
WARNING:   2nd atom: 0 -nan -nan -nan
WARNING:   3rd atom: 0 -nan -nan -nan
WARNING:   4th atom: 0 -nan -nan -nan (../dihedral_class2.cpp:210)
WARNING: Dihedral problem: 0 13410 1148 1151 1153 1158
WARNING:   1st atom: 0 -nan -nan -nan
WARNING:   2nd atom: 0 -nan -nan -nan
WARNING:   3rd atom: 0 -nan -nan -nan
WARNING:   4th atom: 0 -nan -nan -nan (../dihedral_class2.cpp:210)
WARNING: Dihedral problem: 0 13410 1153 1151 1148 1149
WARNING:   1st atom: 0 -nan -nan -nan
WARNING:   2nd atom: 0 -nan -nan -nan
WARNING:   3rd atom: 0 -nan -nan -nan
WARNING:   4th atom: 0 -nan -nan -nan (../dihedral_class2.cpp:210)
WARNING: Dihedral problem: 0 13410 1153 1151 1148 1150
WARNING:   1st atom: 0 -nan -nan -nan
WARNING:   2nd atom: 0 -nan -nan -nan
WARNING:   3rd atom: 0 -nan -nan -nan
WARNING:   4th atom: 0 -nan -nan -nan (../dihedral_class2.cpp:210)
WARNING: Dihedral problem: 0 13410 1153 1151 1406 1401
WARNING:   1st atom: 0 -nan -nan -nan
WARNING:   2nd atom: 0 -nan -nan -nan
WARNING:   3rd atom: 0 -nan -nan -nan
WARNING:   4th atom: 0 -nan -nan -nan (../dihedral_class2.cpp:210)
WARNING: Dihedral problem: 0 13410 1148 1151 1153 1154
WARNING:   1st atom: 0 -nan -nan -nan
WARNING:   2nd atom: 0 -nan -nan -nan
WARNING:   3rd atom: 0 -nan -nan -nan
WARNING:   4th atom: 0 -nan -nan -nan (../dihedral_class2.cpp:210)
WARNING: Dihedral problem: 0 13410 1148 1151 1406 1401
WARNING:   1st atom: 0 -nan -nan -nan
WARNING:   2nd atom: 0 -nan -nan -nan
WARNING:   3rd atom: 0 -nan -nan -nan
WARNING:   4th atom: 0 -nan -nan -nan (../dihedral_class2.cpp:210)
WARNING: Dihedral problem: 0 13410 1153 1158 1551 1552
WARNING:   1st atom: 0 -nan -nan -nan
WARNING:   2nd atom: 0 -nan -nan -nan
WARNING:   3rd atom: 0 -nan -nan -nan
WARNING:   4th atom: 0 -nan -nan -nan (../dihedral_class2.cpp:210)
WARNING: Dihedral problem: 0 13410 1548 1551 1553 1558
WARNING:   1st atom: 0 -nan -nan -nan
WARNING:   2nd atom: 0 -nan -nan -nan
WARNING:   3rd atom: 0 -nan -nan -nan
WARNING:   4th atom: 0 -nan -nan -nan (../dihedral_class2.cpp:210)
WARNING: Dihedral problem: 0 13410 1552 1551 1553 1558
WARNING:   1st atom: 0 -nan -nan -nan
WARNING:   2nd atom: 0 -nan -nan -nan
WARNING:   3rd atom: 0 -nan -nan -nan
WARNING:   4th atom: 0 -nan -nan -nan (../dihedral_class2.cpp:210)
WARNING: Dihedral problem: 0 13410 1553 1551 1158 1153
WARNING:   1st atom: 0 -nan -nan -nan
WARNING:   2nd atom: 0 -nan -nan -nan
WARNING:   3rd atom: 0 -nan -nan -nan
WARNING:   4th atom: 0 -nan -nan -nan (../dihedral_class2.cpp:210)
WARNING: Dihedral problem: 0 13410 1548 1551 1553 1554
WARNING:   1st atom: 0 -nan -nan -nan
WARNING:   2nd atom: 0 -nan -nan -nan
WARNING:   3rd atom: 0 -nan -nan -nan
WARNING:   4th atom: 0 -nan -nan -nan (../dihedral_class2.cpp:210)
WARNING: Dihedral problem: 0 13410 1548 1551 1158 1153
WARNING:   1st atom: 0 -nan -nan -nan
WARNING:   2nd atom: 0 -nan -nan -nan
WARNING:   3rd atom: 0 -nan -nan -nan
WARNING:   4th atom: 0 -nan -nan -nan (../dihedral_class2.cpp:210)
WARNING: Dihedral problem: 0 13410 1373 1376 1379 1381
WARNING:   1st atom: 0 -nan -nan -nan
WARNING:   2nd atom: 0 -nan -nan -nan
WARNING:   3rd atom: 0 -nan -nan -nan
WARNING:   4th atom: 0 -nan -nan -nan (../dihedral_class2.cpp:210)
WARNING: Dihedral problem: 0 13410 1379 1376 1373 1371
WARNING:   1st atom: 0 -nan -nan -nan
WARNING:   2nd atom: 0 -nan -nan -nan
WARNING:   3rd atom: 0 -nan -nan -nan
WARNING:   4th atom: 0 -nan -nan -nan (../dihedral_class2.cpp:210)
WARNING: Dihedral problem: 0 13410 1379 1376 1373 1375
WARNING:   1st atom: 0 -nan -nan -nan
WARNING:   2nd atom: 0 -nan -nan -nan
WARNING:   3rd atom: 0 -nan -nan -nan
WARNING:   4th atom: 0 -nan -nan -nan (../dihedral_class2.cpp:210)
WARNING: Dihedral problem: 0 13410 1379 1376 1373 1374
WARNING:   1st atom: 0 -nan -nan -nan
WARNING:   2nd atom: 0 -nan -nan -nan
WARNING:   3rd atom: 0 -nan -nan -nan
WARNING:   4th atom: 0 -nan -nan -nan (../dihedral_class2.cpp:210)
WARNING: Dihedral problem: 0 13410 1373 1376 1379 1380
WARNING:   1st atom: 0 -nan -nan -nan
WARNING:   2nd atom: 0 -nan -nan -nan
WARNING:   3rd atom: 0 -nan -nan -nan
WARNING:   4th atom: 0 -nan -nan -nan (../dihedral_class2.cpp:210)
WARNING: Dihedral problem: 0 13410 1377 1376 1379 1380
WARNING:   1st atom: 0 -nan -nan -nan
WARNING:   2nd atom: 0 -nan -nan -nan
WARNING:   3rd atom: 0 -nan -nan -nan
WARNING:   4th atom: 0 -nan -nan -nan (../dihedral_class2.cpp:210)
WARNING: Dihedral problem: 0 13410 1378 1376 1379 1380
WARNING:   1st atom: 0 -nan -nan -nan
WARNING:   2nd atom: 0 -nan -nan -nan
WARNING:   3rd atom: 0 -nan -nan -nan
WARNING:   4th atom: 0 -nan -nan -nan (../dihedral_class2.cpp:210)
WARNING: Dihedral problem: 0 13410 1373 1376 1379 1558
WARNING:   1st atom: 0 -nan -nan -nan
WARNING:   2nd atom: 0 -nan -nan -nan
WARNING:   3rd atom: 0 -nan -nan -nan
WARNING:   4th atom: 0 -nan -nan -nan (../dihedral_class2.cpp:210)
WARNING: Dihedral problem: 0 13410 1377 1376 1379 1558
WARNING:   1st atom: 0 -nan -nan -nan
WARNING:   2nd atom: 0 -nan -nan -nan
WARNING:   3rd atom: 0 -nan -nan -nan
WARNING:   4th atom: 0 -nan -nan -nan (../dihedral_class2.cpp:210)
WARNING: Dihedral problem: 0 13410 1378 1376 1379 1558
WARNING:   1st atom: 0 -nan -nan -nan
WARNING:   2nd atom: 0 -nan -nan -nan
WARNING:   3rd atom: 0 -nan -nan -nan
WARNING:   4th atom: 0 -nan -nan -nan (../dihedral_class2.cpp:210)
WARNING: Dihedral problem: 0 13410 1377 1376 1373 1375
WARNING:   1st atom: 0 -nan -nan -nan
WARNING:   2nd atom: 0 -nan -nan -nan
WARNING:   3rd atom: 0 -nan -nan -nan
WARNING:   4th atom: 0 -nan -nan -nan (../dihedral_class2.cpp:210)
WARNING: Dihedral problem: 0 13410 1377 1376 1373 1374
WARNING:   1st atom: 0 -nan -nan -nan
WARNING:   2nd atom: 0 -nan -nan -nan
WARNING:   3rd atom: 0 -nan -nan -nan
WARNING:   4th atom: 0 -nan -nan -nan (../dihedral_class2.cpp:210)
WARNING: Dihedral problem: 0 13410 1378 1376 1373 1375
WARNING:   1st atom: 0 -nan -nan -nan
WARNING:   2nd atom: 0 -nan -nan -nan
WARNING:   3rd atom: 0 -nan -nan -nan
WARNING:   4th atom: 0 -nan -nan -nan (../dihedral_class2.cpp:210)
WARNING: Dihedral problem: 0 13410 1378 1376 1373 1374
WARNING:   1st atom: 0 -nan -nan -nan
WARNING:   2nd atom: 0 -nan -nan -nan
WARNING:   3rd atom: 0 -nan -nan -nan
WARNING:   4th atom: 0 -nan -nan -nan (../dihedral_class2.cpp:210)
WARNING: Dihedral problem: 0 13410 1145 1148 1151 1153
WARNING:   1st atom: 0 -nan -nan -nan
WARNING:   2nd atom: 0 -nan -nan -nan
WARNING:   3rd atom: 0 -nan -nan -nan
WARNING:   4th atom: 0 -nan -nan -nan (../dihedral_class2.cpp:210)
WARNING: Dihedral problem: 0 13410 1151 1148 1145 1143
WARNING:   1st atom: 0 -nan -nan -nan
WARNING:   2nd atom: 0 -nan -nan -nan
WARNING:   3rd atom: 0 -nan -nan -nan
WARNING:   4th atom: 0 -nan -nan -nan (../dihedral_class2.cpp:210)
WARNING: Dihedral problem: 0 13410 1151 1148 1145 1147
WARNING:   1st atom: 0 -nan -nan -nan
WARNING:   2nd atom: 0 -nan -nan -nan
WARNING:   3rd atom: 0 -nan -nan -nan
WARNING:   4th atom: 0 -nan -nan -nan (../dihedral_class2.cpp:210)
WARNING: Dihedral problem: 0 13410 1151 1148 1145 1146
WARNING:   1st atom: 0 -nan -nan -nan
WARNING:   2nd atom: 0 -nan -nan -nan
WARNING:   3rd atom: 0 -nan -nan -nan
WARNING:   4th atom: 0 -nan -nan -nan (../dihedral_class2.cpp:210)
WARNING: Dihedral problem: 0 13410 1145 1148 1151 1406
WARNING:   1st atom: 0 -nan -nan -nan
WARNING:   2nd atom: 0 -nan -nan -nan
WARNING:   3rd atom: 0 -nan -nan -nan
WARNING:   4th atom: 0 -nan -nan -nan (../dihedral_class2.cpp:210)
WARNING: Dihedral problem: 0 13410 1149 1148 1151 1406
WARNING:   1st atom: 0 -nan -nan -nan
WARNING:   2nd atom: 0 -nan -nan -nan
WARNING:   3rd atom: 0 -nan -nan -nan
WARNING:   4th atom: 0 -nan -nan -nan (../dihedral_class2.cpp:210)
WARNING: Dihedral problem: 0 13410 1149 1148 1145 1147
WARNING:   1st atom: 0 -nan -nan -nan
WARNING:   2nd atom: 0 -nan -nan -nan
WARNING:   3rd atom: 0 -nan -nan -nan
WARNING:   4th atom: 0 -nan -nan -nan (../dihedral_class2.cpp:210)
WARNING: Dihedral problem: 0 13410 1149 1148 1145 1146
WARNING:   1st atom: 0 -nan -nan -nan
WARNING:   2nd atom: 0 -nan -nan -nan
WARNING:   3rd atom: 0 -nan -nan -nan
WARNING:   4th atom: 0 -nan -nan -nan (../dihedral_class2.cpp:210)
WARNING: Dihedral problem: 0 13410 1376 1379 1381 1386
WARNING:   1st atom: 0 -nan -nan -nan
WARNING:   2nd atom: 0 -nan -nan -nan
WARNING:   3rd atom: 0 -nan -nan -nan
WARNING:   4th atom: 0 -nan -nan -nan (../dihedral_class2.cpp:210)
WARNING: Dihedral problem: 0 13410 1380 1379 1381 1386
WARNING:   1st atom: 0 -nan -nan -nan
WARNING:   2nd atom: 0 -nan -nan -nan
WARNING:   3rd atom: 0 -nan -nan -nan
WARNING:   4th atom: 0 -nan -nan -nan (../dihedral_class2.cpp:210)
WARNING: Dihedral problem: 0 13410 1381 1379 1376 1377
WARNING:   1st atom: 0 -nan -nan -nan
WARNING:   2nd atom: 0 -nan -nan -nan
WARNING:   3rd atom: 0 -nan -nan -nan
WARNING:   4th atom: 0 -nan -nan -nan (../dihedral_class2.cpp:210)
WARNING: Dihedral problem: 0 13410 1381 1379 1376 1378
WARNING:   1st atom: 0 -nan -nan -nan
WARNING:   2nd atom: 0 -nan -nan -nan
WARNING:   3rd atom: 0 -nan -nan -nan
WARNING:   4th atom: 0 -nan -nan -nan (../dihedral_class2.cpp:210)
WARNING: Dihedral problem: 0 13410 1381 1379 1558 1553
WARNING:   1st atom: 0 -nan -nan -nan
WARNING:   2nd atom: 0 -nan -nan -nan
WARNING:   3rd atom: 0 -nan -nan -nan
WARNING:   4th atom: 0 -nan -nan -nan (../dihedral_class2.cpp:210)
WARNING: Dihedral problem: 0 13410 1376 1379 1381 1382
WARNING:   1st atom: 0 -nan -nan -nan
WARNING:   2nd atom: 0 -nan -nan -nan
WARNING:   3rd atom: 0 -nan -nan -nan
WARNING:   4th atom: 0 -nan -nan -nan (../dihedral_class2.cpp:210)
WARNING: Dihedral problem: 0 13410 1376 1379 1558 1553
WARNING:   1st atom: 0 -nan -nan -nan
WARNING:   2nd atom: 0 -nan -nan -nan
WARNING:   3rd atom: 0 -nan -nan -nan
WARNING:   4th atom: 0 -nan -nan -nan (../dihedral_class2.cpp:210)
WARNING: Dihedral problem: 0 13410 1548 1545 1543 1540
WARNING:   1st atom: 0 -nan -nan -nan
WARNING:   2nd atom: 0 -nan -nan -nan
WARNING:   3rd atom: 0 -nan -nan -nan
WARNING:   4th atom: 0 -nan -nan -nan (../dihedral_class2.cpp:210)
WARNING: Dihedral problem: 0 13410 1548 1545 1543 1544
WARNING:   1st atom: 0 -nan -nan -nan
WARNING:   2nd atom: 0 -nan -nan -nan
WARNING:   3rd atom: 0 -nan -nan -nan
WARNING:   4th atom: 0 -nan -nan