LAMMPS (22 Dec 2022)
# PREREQUISITES:
#
#     You must use moltemplate.sh to create 3 files:
#        system.data  system.in.init  system.in.settings
#     (Follow the instructions in README_setup.sh,
#      or run the file as a script using ./README_setup.sh)

# ------------------------------- Initialization Section --------------------

units real
atom_style full
pair_style lj/class2/coul/long 10.0 10.0
bond_style class2
angle_style class2
dihedral_style class2
improper_style class2
kspace_style pppm/cg 0.001

pair_modify     mix sixthpower tail yes
special_bonds   lj/coul 0 0 1


# ------------------------------- Atom Definition Section -------------------

read_data       "reacted_lmp.data"
Reading data file ...
  orthogonal box = (5.9030791 5.9030791 5.9030791) to (43.568975 43.568975 43.568975)
  2 by 3 by 4 MPI processor grid
  reading atoms ...
  4952 atoms
  reading velocities ...
  4952 velocities
  scanning bonds ...
  4 = max bonds/atom
  scanning angles ...
  6 = max angles/atom
  scanning dihedrals ...
  17 = max dihedrals/atom
  scanning impropers ...
  4 = max impropers/atom
  reading bonds ...
  5336 bonds
  reading angles ...
  10920 angles
  reading dihedrals ...
  17852 dihedrals
  reading impropers ...
  6890 impropers
Finding 1-2 1-3 1-4 neighbors ...
  special bond factors lj:    0        0        1       
  special bond factors coul:  0        0        1       
     4 = max # of 1-2 neighbors
     9 = max # of 1-3 neighbors
    13 = max # of special neighbors
  special bonds CPU = 0.003 seconds
  read_data CPU = 0.425 seconds

include calc.pram

# Masses

mass		 1    12.01115  # c
mass		 2    12.01115  # c1
mass		 3    12.01115  # c_1
mass		 4     1.00797  # h
mass		 5     1.00797  # hc
mass		 6    15.99940  # o3e
mass		 7    15.99940  # o_1
mass		 8    15.99940  # o_2
mass		 9    15.99940  # oc
mass		10    15.99940  # oh

# Potentials

pair_coeff	 1  1    0.05400    4.01000  # c,c
pair_coeff	 2  2    0.05400    4.01000  # c1,c1
pair_coeff	 3  3    0.12000    3.81000  # c_1,c_1
pair_coeff	 4  4    0.02000    2.99500  # h,h
pair_coeff	 5  5    0.02000    2.99500  # hc,hc
pair_coeff	 6  6    0.24000    3.53500  # o3e,o3e
pair_coeff	 7  7    0.26700    3.30000  # o_1,o_1
pair_coeff	 8  8    0.24000    3.42000  # o_2,o_2
pair_coeff	 9  9    0.24000    3.53500  # oc,oc
pair_coeff	10 10    0.24000    3.53500  # oh,oh

# Bond Coeffs

bond_coeff	 1    1.53000  299.67000 -501.77000  679.81000  # c,c
bond_coeff	 2    1.53000  299.67000 -501.77000  679.81000  # c,c1
bond_coeff	 3    1.10100  345.00000 -691.89000  844.60000  # c,hc
bond_coeff	 4    1.43000  326.72730 -608.53060  689.03330  # c,o_2
bond_coeff	 5    1.53000  299.67000 -501.77000  679.81000  # c1,c1
bond_coeff	 6    1.52020  253.70670 -423.03700  396.90000  # c1,c_1
bond_coeff	 7    1.10100  345.00000 -691.89000  844.60000  # c1,hc
bond_coeff	 8    1.42000  400.39540 -835.19510 1313.01420  # c1,o3e
bond_coeff	 9    1.42000  400.39540 -835.19510 1313.01420  # c1,oc
bond_coeff	10    1.42000  400.39540 -835.19510 1313.01420  # c1,oh
bond_coeff	11    1.20200  851.14030 -1918.48820 2160.76590  # c_1,o_1
bond_coeff	12    1.36830  367.14810 -794.79080 1055.23190  # c_1,o_2
bond_coeff	13    0.96000  493.84800    0.00000    0.00000  # h,oh

# Angle Coeffs

angle_coeff	 1  112.67000   39.51600   -7.44300   -9.55830  # c,c,c
angle_coeff	 2  112.67000   39.51600   -7.44300   -9.55830  # c,c,c1
angle_coeff	 3  110.77000   41.45300  -10.60400    5.12900  # c,c,hc
angle_coeff	 4  112.67000   39.51600   -7.44300   -9.55830  # c,c1,c
angle_coeff	 5  112.67000   39.51600   -7.44300   -9.55830  # c,c1,c1
angle_coeff	 6  108.52950   51.97470   -9.48510  -10.99850  # c,c1,c_1
angle_coeff	 7  110.77000   41.45300  -10.60400    5.12900  # c,c1,hc
angle_coeff	 8  111.27000   54.53810   -8.36420  -13.08380  # c,c1,o3e
angle_coeff	 9  111.27000   54.53810   -8.36420  -13.08380  # c,c1,oc
angle_coeff	10  111.27000   54.53810   -8.36420  -13.08380  # c,c1,oh
angle_coeff	11  113.28800   61.28680  -28.97860    7.99290  # c,o_2,c_1
angle_coeff	12  112.67000   39.51600   -7.44300   -9.55830  # c1,c,c1
angle_coeff	13  110.77000   41.45300  -10.60400    5.12900  # c1,c,hc
angle_coeff	14  107.41000   63.39070  -13.45130    1.66500  # c1,c,o_2
angle_coeff	15  110.77000   41.45300  -10.60400    5.12900  # c1,c1,hc
angle_coeff	16  111.27000   54.53810   -8.36420  -13.08380  # c1,c1,o3e
angle_coeff	17  111.27000   54.53810   -8.36420  -13.08380  # c1,c1,oc
angle_coeff	18  111.27000   54.53810   -8.36420  -13.08380  # c1,c1,oh
angle_coeff	19  123.14510   55.54310  -17.21230    0.13480  # c1,c_1,o_1
angle_coeff	20  100.31820   38.86310   -3.83230   -7.98020  # c1,c_1,o_2
angle_coeff	21  104.50000   35.74540  -10.00670   -6.27290  # c1,o3e,c1
angle_coeff	22  104.50000   35.74540  -10.00670   -6.27290  # c1,oc,c1
angle_coeff	23  109.00000   58.50000    0.00000    0.00000  # c1,oh,h
angle_coeff	24  107.73360   40.60990  -28.81210    0.00000  # c_1,c1,hc
angle_coeff	25  107.66000   39.64100  -12.92100   -2.43180  # hc,c,hc
angle_coeff	26  107.68800   65.48010  -10.34980    5.88660  # hc,c,o_2
angle_coeff	27  108.72800   58.54460  -10.80880  -12.40060  # hc,c1,o3e
angle_coeff	28  108.72800   58.54460  -10.80880  -12.40060  # hc,c1,oc
angle_coeff	29  108.72800   58.54460  -10.80880  -12.40060  # hc,c1,oh
angle_coeff	30  120.79700   95.34460  -32.28690    6.37780  # o_1,c_1,o_2

# BondBond Coeffs

angle_coeff	 1 bb    0.00000    1.53000    1.53000  # c,c,c
angle_coeff	 2 bb    0.00000    1.53000    1.53000  # c,c,c1
angle_coeff	 3 bb    3.38720    1.53000    1.10100  # c,c,hc
angle_coeff	 4 bb    0.00000    1.53000    1.53000  # c,c1,c
angle_coeff	 5 bb    0.00000    1.53000    1.53000  # c,c1,c1
angle_coeff	 6 bb    5.41990    1.53000    1.52020  # c,c1,c_1
angle_coeff	 7 bb    3.38720    1.53000    1.10100  # c,c1,hc
angle_coeff	 8 bb   11.43180    1.53000    1.42000  # c,c1,o3e
angle_coeff	 9 bb   11.43180    1.53000    1.42000  # c,c1,oc
angle_coeff	10 bb   11.43180    1.53000    1.42000  # c,c1,oh
angle_coeff	11 bb   45.45030    1.43000    1.36830  # c,o_2,c_1
angle_coeff	12 bb    0.00000    1.53000    1.53000  # c1,c,c1
angle_coeff	13 bb    3.38720    1.53000    1.10100  # c1,c,hc
angle_coeff	14 bb   23.26470    1.53000    1.43000  # c1,c,o_2
angle_coeff	15 bb    3.38720    1.53000    1.10100  # c1,c1,hc
angle_coeff	16 bb   11.43180    1.53000    1.42000  # c1,c1,o3e
angle_coeff	17 bb   11.43180    1.53000    1.42000  # c1,c1,oc
angle_coeff	18 bb   11.43180    1.53000    1.42000  # c1,c1,oh
angle_coeff	19 bb   46.06850    1.52020    1.20200  # c1,c_1,o_1
angle_coeff	20 bb   19.10690    1.52020    1.36830  # c1,c_1,o_2
angle_coeff	21 bb   -7.11310    1.42000    1.42000  # c1,o3e,c1
angle_coeff	22 bb   -7.11310    1.42000    1.42000  # c1,oc,c1
angle_coeff	23 bb    0.00000    1.42000    0.96000  # c1,oh,h
angle_coeff	24 bb    0.71150    1.52020    1.10100  # c_1,c1,hc
angle_coeff	25 bb    5.33160    1.10100    1.10100  # hc,c,hc
angle_coeff	26 bb    5.64540    1.10100    1.43000  # hc,c,o_2
angle_coeff	27 bb   23.19790    1.10100    1.42000  # hc,c1,o3e
angle_coeff	28 bb   23.19790    1.10100    1.42000  # hc,c1,oc
angle_coeff	29 bb   23.19790    1.10100    1.42000  # hc,c1,oh
angle_coeff	30 bb  121.48800    1.20200    1.36830  # o_1,c_1,o_2

# BondAngle Coeffs

angle_coeff	 1 ba    8.01600    8.01600    1.53000    1.53000  # c,c,c
angle_coeff	 2 ba    8.01600    8.01600    1.53000    1.53000  # c,c,c1
angle_coeff	 3 ba   11.42100   20.75400    1.53000    1.10100  # c,c,hc
angle_coeff	 4 ba    8.01600    8.01600    1.53000    1.53000  # c,c1,c
angle_coeff	 5 ba    8.01600    8.01600    1.53000    1.53000  # c,c1,c1
angle_coeff	 6 ba   15.87580   18.16780    1.53000    1.52020  # c,c1,c_1
angle_coeff	 7 ba   11.42100   20.75400    1.53000    1.10100  # c,c1,hc
angle_coeff	 8 ba    2.68680   20.40330    1.53000    1.42000  # c,c1,o3e
angle_coeff	 9 ba    2.68680   20.40330    1.53000    1.42000  # c,c1,oc
angle_coeff	10 ba    2.68680   20.40330    1.53000    1.42000  # c,c1,oh
angle_coeff	11 ba   46.46080   41.91160    1.43000    1.36830  # c,o_2,c_1
angle_coeff	12 ba    8.01600    8.01600    1.53000    1.53000  # c1,c,c1
angle_coeff	13 ba   20.75400   11.42100    1.53000    1.10100  # c1,c,hc
angle_coeff	14 ba   23.39200   47.94870    1.53000    1.43000  # c1,c,o_2
angle_coeff	15 ba   20.75400   11.42100    1.53000    1.10100  # c1,c1,hc
angle_coeff	16 ba    2.68680   20.40330    1.53000    1.42000  # c1,c1,o3e
angle_coeff	17 ba    2.68680   20.40330    1.53000    1.42000  # c1,c1,oc
angle_coeff	18 ba    2.68680   20.40330    1.53000    1.42000  # c1,c1,oh
angle_coeff	19 ba   37.12980   34.99820    1.52020    1.20200  # c1,c_1,o_1
angle_coeff	20 ba    1.34350    4.69780    1.52020    1.36830  # c1,c_1,o_2
angle_coeff	21 ba   -2.81120   -2.81120    1.42000    1.42000  # c1,o3e,c1
angle_coeff	22 ba   -2.81120   -2.81120    1.42000    1.42000  # c1,oc,c1
angle_coeff	23 ba    0.00000    0.00000    1.42000    0.96000  # c1,oh,h
angle_coeff	24 ba   12.46320    9.17650    1.52020    1.10100  # c_1,c1,hc
angle_coeff	25 ba   18.10300   18.10300    1.10100    1.10100  # hc,c,hc
angle_coeff	26 ba    8.68640   57.49750    1.10100    1.43000  # hc,c,o_2
angle_coeff	27 ba    4.61890   55.32700    1.10100    1.42000  # hc,c1,o3e
angle_coeff	28 ba    4.61890   55.32700    1.10100    1.42000  # hc,c1,oc
angle_coeff	29 ba    4.61890   55.32700    1.10100    1.42000  # hc,c1,oh
angle_coeff	30 ba   76.26140   71.87610    1.20200    1.36830  # o_1,c_1,o_2

# Dihedral Coeffs

dihedral_coeff	 1    0.00000    0.00000    0.05140    0.00000   -0.14300    0.00000  # c,c,c,c1
dihedral_coeff	 2    0.00000    0.00000    0.03160    0.00000   -0.16810    0.00000  # c,c,c,hc
dihedral_coeff	 3    0.00000    0.00000    0.05140    0.00000   -0.14300    0.00000  # c,c,c1,c
dihedral_coeff	 4    0.00000    0.00000    0.05140    0.00000   -0.14300    0.00000  # c,c,c1,c1
dihedral_coeff	 5    0.09720    0.00000    0.07220    0.00000   -0.25810    0.00000  # c,c,c1,c_1
dihedral_coeff	 6    0.00000    0.00000    0.03160    0.00000   -0.16810    0.00000  # c,c,c1,hc
dihedral_coeff	 7    0.71370    0.00000    0.26600    0.00000   -0.25450    0.00000  # c,c,c1,o3e
dihedral_coeff	 8    0.71370    0.00000    0.26600    0.00000   -0.25450    0.00000  # c,c,c1,oc
dihedral_coeff	 9    0.00000    0.00000    0.05140    0.00000   -0.14300    0.00000  # c,c1,c,c1
dihedral_coeff	10    0.00000    0.00000    0.03160    0.00000   -0.16810    0.00000  # c,c1,c,hc
dihedral_coeff	11    0.00000    0.00000    0.00000    0.00000   -0.25000    0.00000  # c,c1,c,o_2
dihedral_coeff	12    0.00000    0.00000    0.05140    0.00000   -0.14300    0.00000  # c,c1,c1,c
dihedral_coeff	13    0.00000    0.00000    0.03160    0.00000   -0.16810    0.00000  # c,c1,c1,hc
dihedral_coeff	14    0.71370    0.00000    0.26600    0.00000   -0.25450    0.00000  # c,c1,c1,o3e
dihedral_coeff	15    0.71370    0.00000    0.26600    0.00000   -0.25450    0.00000  # c,c1,c1,oc
dihedral_coeff	16    0.71370    0.00000    0.26600    0.00000   -0.25450    0.00000  # c,c1,c1,oh
dihedral_coeff	17    0.04420    0.00000    0.02920    0.00000    0.05620    0.00000  # c,c1,c_1,o_1
dihedral_coeff	18    1.83410    0.00000    2.06030    0.00000   -0.01950    0.00000  # c,c1,c_1,o_2
dihedral_coeff	19   -0.52030    0.00000   -0.30280    0.00000   -0.34500    0.00000  # c,c1,o3e,c1
dihedral_coeff	20   -0.52030    0.00000   -0.30280    0.00000   -0.34500    0.00000  # c,c1,oc,c1
dihedral_coeff	21    0.00000    0.00000    0.00000    0.00000    0.13000  180.00000  # c,c1,oh,h
dihedral_coeff	22   -2.55940    0.00000    2.20130    0.00000    0.03250    0.00000  # c,o_2,c_1,c1
dihedral_coeff	23    0.00000    0.00000    2.20890    0.00000    0.00000    0.00000  # c,o_2,c_1,o_1
dihedral_coeff	24    0.00000    0.00000    0.05140    0.00000   -0.14300    0.00000  # c1,c,c,c1
dihedral_coeff	25    0.00000    0.00000    0.03160    0.00000   -0.16810    0.00000  # c1,c,c,hc
dihedral_coeff	26    0.00000    0.00000    0.05140    0.00000   -0.14300    0.00000  # c1,c,c1,c1
dihedral_coeff	27    0.09720    0.00000    0.07220    0.00000   -0.25810    0.00000  # c1,c,c1,c_1
dihedral_coeff	28    0.00000    0.00000    0.03160    0.00000   -0.16810    0.00000  # c1,c,c1,hc
dihedral_coeff	29    0.71370    0.00000    0.26600    0.00000   -0.25450    0.00000  # c1,c,c1,o3e
dihedral_coeff	30    0.71370    0.00000    0.26600    0.00000   -0.25450    0.00000  # c1,c,c1,oc
dihedral_coeff	31    0.71370    0.00000    0.26600    0.00000   -0.25450    0.00000  # c1,c,c1,oh
dihedral_coeff	32    0.00000    0.00000    0.00000    0.00000   -0.19320    0.00000  # c1,c,o_2,c_1
dihedral_coeff	33    0.00000    0.00000    0.03160    0.00000   -0.16810    0.00000  # c1,c1,c,hc
dihedral_coeff	34   -0.52030    0.00000   -0.30280    0.00000   -0.34500    0.00000  # c1,c1,oc,c1
dihedral_coeff	35    0.00000    0.00000    0.00000    0.00000    0.13000  180.00000  # c1,c1,oh,h
dihedral_coeff	36    0.53020    0.00000    0.00000    0.00000   -0.39660    0.00000  # c1,o3e,c1,hc
dihedral_coeff	37    0.53020    0.00000    0.00000    0.00000   -0.39660    0.00000  # c1,oc,c1,hc
dihedral_coeff	38   -0.02280    0.00000    0.02800    0.00000   -0.18630    0.00000  # c_1,c1,c,hc
dihedral_coeff	39    0.00000    0.00000    0.00000    0.00000   -0.19320    0.00000  # c_1,o_2,c,hc
dihedral_coeff	40    0.00000    0.00000    0.00000    0.00000    0.13000  180.00000  # h,oh,c1,hc
dihedral_coeff	41   -0.14320    0.00000    0.06170    0.00000   -0.10830    0.00000  # hc,c,c,hc
dihedral_coeff	42   -0.14320    0.00000    0.06170    0.00000   -0.10830    0.00000  # hc,c,c1,hc
dihedral_coeff	43   -0.14350    0.00000    0.25300    0.00000   -0.09050    0.00000  # hc,c,c1,o3e
dihedral_coeff	44   -0.14350    0.00000    0.25300    0.00000   -0.09050    0.00000  # hc,c,c1,oc
dihedral_coeff	45   -0.14350    0.00000    0.25300    0.00000   -0.09050    0.00000  # hc,c,c1,oh
dihedral_coeff	46    0.00000    0.00000    0.00000    0.00000   -0.25000    0.00000  # hc,c1,c,o_2
dihedral_coeff	47   -0.14320    0.00000    0.06170    0.00000   -0.10830    0.00000  # hc,c1,c1,hc
dihedral_coeff	48   -0.14350    0.00000    0.25300    0.00000   -0.09050    0.00000  # hc,c1,c1,o3e
dihedral_coeff	49   -0.14350    0.00000    0.25300    0.00000   -0.09050    0.00000  # hc,c1,c1,oc
dihedral_coeff	50   -0.14350    0.00000    0.25300    0.00000   -0.09050    0.00000  # hc,c1,c1,oh
dihedral_coeff	51   -0.18040    0.00000    0.00120    0.00000    0.03710    0.00000  # hc,c1,c_1,o_1
dihedral_coeff	52   -0.63590    0.00000    1.48070    0.00000   -0.04380    0.00000  # hc,c1,c_1,o_2
dihedral_coeff	53   -0.18200    0.00000   -0.10840    0.00000   -0.70470    0.00000  # oc,c1,c1,oc
dihedral_coeff	54   -0.18200    0.00000   -0.10840    0.00000   -0.70470    0.00000  # oc,c1,c1,oh

# MiddleBondTorsion Coeffs

dihedral_coeff	 1 mbt  -17.78700   -7.18770    0.00000    1.53000  # c,c,c,c1
dihedral_coeff	 2 mbt  -14.87900   -3.65810   -0.31380    1.53000  # c,c,c,hc
dihedral_coeff	 3 mbt  -17.78700   -7.18770    0.00000    1.53000  # c,c,c1,c
dihedral_coeff	 4 mbt  -17.78700   -7.18770    0.00000    1.53000  # c,c,c1,c1
dihedral_coeff	 5 mbt   -1.59450    0.22670   -0.69110    1.53000  # c,c,c1,c_1
dihedral_coeff	 6 mbt  -14.87900   -3.65810   -0.31380    1.53000  # c,c,c1,hc
dihedral_coeff	 7 mbt  -21.88420   -7.67640   -0.68680    1.53000  # c,c,c1,o3e
dihedral_coeff	 8 mbt  -21.88420   -7.67640   -0.68680    1.53000  # c,c,c1,oc
dihedral_coeff	 9 mbt  -17.78700   -7.18770    0.00000    1.53000  # c,c1,c,c1
dihedral_coeff	10 mbt  -14.87900   -3.65810   -0.31380    1.53000  # c,c1,c,hc
dihedral_coeff	11 mbt    0.00000    0.00000    0.00000    1.53000  # c,c1,c,o_2
dihedral_coeff	12 mbt  -17.78700   -7.18770    0.00000    1.53000  # c,c1,c1,c
dihedral_coeff	13 mbt  -14.87900   -3.65810   -0.31380    1.53000  # c,c1,c1,hc
dihedral_coeff	14 mbt  -21.88420   -7.67640   -0.68680    1.53000  # c,c1,c1,o3e
dihedral_coeff	15 mbt  -21.88420   -7.67640   -0.68680    1.53000  # c,c1,c1,oc
dihedral_coeff	16 mbt  -21.88420   -7.67640   -0.68680    1.53000  # c,c1,c1,oh
dihedral_coeff	17 mbt    0.33880   -0.10960    0.12190    1.52020  # c,c1,c_1,o_1
dihedral_coeff	18 mbt  -17.32800   -5.79000   -3.21140    1.52020  # c,c1,c_1,o_2
dihedral_coeff	19 mbt   -5.92880   -2.70070   -0.31750    1.42000  # c,c1,o3e,c1
dihedral_coeff	20 mbt   -5.92880   -2.70070   -0.31750    1.42000  # c,c1,oc,c1
dihedral_coeff	21 mbt    0.00000    0.00000    0.00000    1.42000  # c,c1,oh,h
dihedral_coeff	22 mbt    1.34450    3.55150   -4.92020    1.36830  # c,o_2,c_1,c1
dihedral_coeff	23 mbt    4.26000    0.00000    0.00000    1.36830  # c,o_2,c_1,o_1
dihedral_coeff	24 mbt  -17.78700   -7.18770    0.00000    1.53000  # c1,c,c,c1
dihedral_coeff	25 mbt  -14.87900   -3.65810   -0.31380    1.53000  # c1,c,c,hc
dihedral_coeff	26 mbt  -17.78700   -7.18770    0.00000    1.53000  # c1,c,c1,c1
dihedral_coeff	27 mbt   -1.59450    0.22670   -0.69110    1.53000  # c1,c,c1,c_1
dihedral_coeff	28 mbt  -14.87900   -3.65810   -0.31380    1.53000  # c1,c,c1,hc
dihedral_coeff	29 mbt  -21.88420   -7.67640   -0.68680    1.53000  # c1,c,c1,o3e
dihedral_coeff	30 mbt  -21.88420   -7.67640   -0.68680    1.53000  # c1,c,c1,oc
dihedral_coeff	31 mbt  -21.88420   -7.67640   -0.68680    1.53000  # c1,c,c1,oh
dihedral_coeff	32 mbt   -5.43500    0.00000    0.00000    1.43000  # c1,c,o_2,c_1
dihedral_coeff	33 mbt  -14.87900   -3.65810   -0.31380    1.53000  # c1,c1,c,hc
dihedral_coeff	34 mbt   -5.92880   -2.70070   -0.31750    1.42000  # c1,c1,oc,c1
dihedral_coeff	35 mbt    0.00000    0.00000    0.00000    1.42000  # c1,c1,oh,h
dihedral_coeff	36 mbt   -6.80070   -4.65460   -1.41010    1.42000  # c1,o3e,c1,hc
dihedral_coeff	37 mbt   -6.80070   -4.65460   -1.41010    1.42000  # c1,oc,c1,hc
dihedral_coeff	38 mbt   -3.50390    1.24580   -0.76100    1.53000  # c_1,c1,c,hc
dihedral_coeff	39 mbt    0.00000    0.00000    0.00000    1.43000  # c_1,o_2,c,hc
dihedral_coeff	40 mbt    0.00000    0.00000    0.00000    1.42000  # h,oh,c1,hc
dihedral_coeff	41 mbt  -14.26100   -0.53220   -0.48640    1.53000  # hc,c,c,hc
dihedral_coeff	42 mbt  -14.26100   -0.53220   -0.48640    1.53000  # hc,c,c1,hc
dihedral_coeff	43 mbt  -16.79750   -1.22960   -0.27500    1.53000  # hc,c,c1,o3e
dihedral_coeff	44 mbt  -16.79750   -1.22960   -0.27500    1.53000  # hc,c,c1,oc
dihedral_coeff	45 mbt  -16.79750   -1.22960   -0.27500    1.53000  # hc,c,c1,oh
dihedral_coeff	46 mbt    0.00000    0.00000    0.00000    1.53000  # hc,c1,c,o_2
dihedral_coeff	47 mbt  -14.26100   -0.53220   -0.48640    1.53000  # hc,c1,c1,hc
dihedral_coeff	48 mbt  -16.79750   -1.22960   -0.27500    1.53000  # hc,c1,c1,o3e
dihedral_coeff	49 mbt  -16.79750   -1.22960   -0.27500    1.53000  # hc,c1,c1,oc
dihedral_coeff	50 mbt  -16.79750   -1.22960   -0.27500    1.53000  # hc,c1,c1,oh
dihedral_coeff	51 mbt    0.23590    0.91390    0.95940    1.52020  # hc,c1,c_1,o_1
dihedral_coeff	52 mbt  -13.76860   -2.59590    1.19340    1.52020  # hc,c1,c_1,o_2
dihedral_coeff	53 mbt  -17.25850   -3.61570   -0.83640    1.53000  # oc,c1,c1,oc
dihedral_coeff	54 mbt  -17.25850   -3.61570   -0.83640    1.53000  # oc,c1,c1,oh

# EndBondTorsion Coeffs

dihedral_coeff	 1 ebt   -0.07320    0.00000    0.00000   -0.07320    0.00000    0.00000    1.53000    1.53000  # c,c,c,c1
dihedral_coeff	 2 ebt    0.08140    0.05910    0.22190    0.24860    0.24220   -0.09250    1.53000    1.10100  # c,c,c,hc
dihedral_coeff	 3 ebt   -0.07320    0.00000    0.00000   -0.07320    0.00000    0.00000    1.53000    1.53000  # c,c,c1,c
dihedral_coeff	 4 ebt   -0.07320    0.00000    0.00000   -0.07320    0.00000    0.00000    1.53000    1.53000  # c,c,c1,c1
dihedral_coeff	 5 ebt    0.00550    0.00600   -0.00090    0.00620   -0.00020    0.00360    1.53000    1.52020  # c,c,c1,c_1
dihedral_coeff	 6 ebt    0.08140    0.05910    0.22190    0.24860    0.24220   -0.09250    1.53000    1.10100  # c,c,c1,hc
dihedral_coeff	 7 ebt   -0.31900    0.44110   -0.71740    1.15380    0.84090   -0.91380    1.53000    1.42000  # c,c,c1,o3e
dihedral_coeff	 8 ebt   -0.31900    0.44110   -0.71740    1.15380    0.84090   -0.91380    1.53000    1.42000  # c,c,c1,oc
dihedral_coeff	 9 ebt   -0.07320    0.00000    0.00000   -0.07320    0.00000    0.00000    1.53000    1.53000  # c,c1,c,c1
dihedral_coeff	10 ebt    0.08140    0.05910    0.22190    0.24860    0.24220   -0.09250    1.53000    1.10100  # c,c1,c,hc
dihedral_coeff	11 ebt    0.00000    0.00000    0.00000    0.00000    0.00000    0.00000    1.53000    1.43000  # c,c1,c,o_2
dihedral_coeff	12 ebt   -0.07320    0.00000    0.00000   -0.07320    0.00000    0.00000    1.53000    1.53000  # c,c1,c1,c
dihedral_coeff	13 ebt    0.08140    0.05910    0.22190    0.24860    0.24220   -0.09250    1.53000    1.10100  # c,c1,c1,hc
dihedral_coeff	14 ebt   -0.31900    0.44110   -0.71740    1.15380    0.84090   -0.91380    1.53000    1.42000  # c,c1,c1,o3e
dihedral_coeff	15 ebt   -0.31900    0.44110   -0.71740    1.15380    0.84090   -0.91380    1.53000    1.42000  # c,c1,c1,oc
dihedral_coeff	16 ebt   -0.31900    0.44110   -0.71740    1.15380    0.84090   -0.91380    1.53000    1.42000  # c,c1,c1,oh
dihedral_coeff	17 ebt   -0.28100    0.08160   -0.15220    0.26540    0.05030    0.10460    1.53000    1.20200  # c,c1,c_1,o_1
dihedral_coeff	18 ebt    0.00000    0.00000    0.00000    0.00000    0.00000    0.00000    1.53000    1.36830  # c,c1,c_1,o_2
dihedral_coeff	19 ebt    0.47410    1.26350    0.55760   -0.24560    1.05170   -0.77950    1.53000    1.42000  # c,c1,o3e,c1
dihedral_coeff	20 ebt    0.47410    1.26350    0.55760   -0.24560    1.05170   -0.77950    1.53000    1.42000  # c,c1,oc,c1
dihedral_coeff	21 ebt    0.00000    0.00000    0.00000    0.00000    0.00000    0.00000    1.53000    0.96000  # c,c1,oh,h
dihedral_coeff	22 ebt    0.00000    0.00000    0.00000    0.00000    0.00000    0.00000    1.43000    1.52020  # c,o_2,c_1,c1
dihedral_coeff	23 ebt    0.00000    0.00000    0.00000    0.00000    0.00000    0.00000    1.43000    1.20200  # c,o_2,c_1,o_1
dihedral_coeff	24 ebt   -0.07320    0.00000    0.00000   -0.07320    0.00000    0.00000    1.53000    1.53000  # c1,c,c,c1
dihedral_coeff	25 ebt    0.24860    0.24220   -0.09250    0.08140    0.05910    0.22190    1.53000    1.10100  # c1,c,c,hc
dihedral_coeff	26 ebt   -0.07320    0.00000    0.00000   -0.07320    0.00000    0.00000    1.53000    1.53000  # c1,c,c1,c1
dihedral_coeff	27 ebt    0.00550    0.00600   -0.00090    0.00620   -0.00020    0.00360    1.53000    1.52020  # c1,c,c1,c_1
dihedral_coeff	28 ebt    0.24860    0.24220   -0.09250    0.08140    0.05910    0.22190    1.53000    1.10100  # c1,c,c1,hc
dihedral_coeff	29 ebt   -0.31900    0.44110   -0.71740    1.15380    0.84090   -0.91380    1.53000    1.42000  # c1,c,c1,o3e
dihedral_coeff	30 ebt   -0.31900    0.44110   -0.71740    1.15380    0.84090   -0.91380    1.53000    1.42000  # c1,c,c1,oc
dihedral_coeff	31 ebt   -0.31900    0.44110   -0.71740    1.15380    0.84090   -0.91380    1.53000    1.42000  # c1,c,c1,oh
dihedral_coeff	32 ebt    0.00000    0.00000    0.00000    0.00000    0.00000    0.00000    1.53000    1.36830  # c1,c,o_2,c_1
dihedral_coeff	33 ebt    0.24860    0.24220   -0.09250    0.08140    0.05910    0.22190    1.53000    1.10100  # c1,c1,c,hc
dihedral_coeff	34 ebt   -0.24560    1.05170   -0.77950    0.47410    1.26350    0.55760    1.53000    1.42000  # c1,c1,oc,c1
dihedral_coeff	35 ebt    0.00000    0.00000    0.00000    0.00000    0.00000    0.00000    1.53000    0.96000  # c1,c1,oh,h
dihedral_coeff	36 ebt   -0.16200    0.15640   -1.14080   -0.60540    1.33390    0.96480    1.42000    1.10100  # c1,o3e,c1,hc
dihedral_coeff	37 ebt   -0.16200    0.15640   -1.14080   -0.60540    1.33390    0.96480    1.42000    1.10100  # c1,oc,c1,hc
dihedral_coeff	38 ebt   -0.02040    0.36280   -0.44260   -0.00970   -0.03150   -0.07550    1.52020    1.10100  # c_1,c1,c,hc
dihedral_coeff	39 ebt    0.00000    0.00000    0.00000    0.00000    0.00000    0.00000    1.36830    1.10100  # c_1,o_2,c,hc
dihedral_coeff	40 ebt    0.00000    0.00000    0.00000    0.00000    0.00000    0.00000    0.96000    1.10100  # h,oh,c1,hc
dihedral_coeff	41 ebt    0.21300    0.31200    0.07770    0.21300    0.31200    0.07770    1.10100    1.10100  # hc,c,c,hc
dihedral_coeff	42 ebt    0.21300    0.31200    0.07770    0.21300    0.31200    0.07770    1.10100    1.10100  # hc,c,c1,hc
dihedral_coeff	43 ebt    0.96810    0.95510    0.04360    0.59030    0.66690    0.85840    1.10100    1.42000  # hc,c,c1,o3e
dihedral_coeff	44 ebt    0.96810    0.95510    0.04360    0.59030    0.66690    0.85840    1.10100    1.42000  # hc,c,c1,oc
dihedral_coeff	45 ebt    0.96810    0.95510    0.04360    0.59030    0.66690    0.85840    1.10100    1.42000  # hc,c,c1,oh
dihedral_coeff	46 ebt    0.00000    0.00000    0.00000    0.00000    0.00000    0.00000    1.10100    1.43000  # hc,c1,c,o_2
dihedral_coeff	47 ebt    0.21300    0.31200    0.07770    0.21300    0.31200    0.07770    1.10100    1.10100  # hc,c1,c1,hc
dihedral_coeff	48 ebt    0.96810    0.95510    0.04360    0.59030    0.66690    0.85840    1.10100    1.42000  # hc,c1,c1,o3e
dihedral_coeff	49 ebt    0.96810    0.95510    0.04360    0.59030    0.66690    0.85840    1.10100    1.42000  # hc,c1,c1,oc
dihedral_coeff	50 ebt    0.96810    0.95510    0.04360    0.59030    0.66690    0.85840    1.10100    1.42000  # hc,c1,c1,oh
dihedral_coeff	51 ebt   -0.22980    0.03540    0.38530    1.21430    0.28310    0.39160    1.10100    1.20200  # hc,c1,c_1,o_1
dihedral_coeff	52 ebt    0.00000    0.00000    0.00000    0.00000    0.00000    0.00000    1.10100    1.36830  # hc,c1,c_1,o_2
dihedral_coeff	53 ebt    1.01650    0.75530   -0.46090    1.01650    0.75530   -0.46090    1.42000    1.42000  # oc,c1,c1,oc
dihedral_coeff	54 ebt    1.01650    0.75530   -0.46090    1.01650    0.75530   -0.46090    1.42000    1.42000  # oc,c1,c1,oh

# AngleTorsion Coeffs

dihedral_coeff	 1 at    0.38860   -0.31390    0.13890    0.38860   -0.31390    0.13890  112.67000  112.67000  # c,c,c,c1
dihedral_coeff	 2 at    0.31130    0.45160   -0.19880   -0.24540    0.00000   -0.11360  112.67000  110.77000  # c,c,c,hc
dihedral_coeff	 3 at    0.38860   -0.31390    0.13890    0.38860   -0.31390    0.13890  112.67000  112.67000  # c,c,c1,c
dihedral_coeff	 4 at    0.38860   -0.31390    0.13890    0.38860   -0.31390    0.13890  112.67000  112.67000  # c,c,c1,c1
dihedral_coeff	 5 at    0.05150   -0.06740   -0.04740   -0.26070    0.32030   -0.22830  112.67000  108.52950  # c,c,c1,c_1
dihedral_coeff	 6 at    0.31130    0.45160   -0.19880   -0.24540    0.00000   -0.11360  112.67000  110.77000  # c,c,c1,hc
dihedral_coeff	 7 at    0.56230   -0.30410   -0.40150    0.96720   -0.75660   -1.23310  112.67000  111.27000  # c,c,c1,o3e
dihedral_coeff	 8 at    0.56230   -0.30410   -0.40150    0.96720   -0.75660   -1.23310  112.67000  111.27000  # c,c,c1,oc
dihedral_coeff	 9 at    0.38860   -0.31390    0.13890    0.38860   -0.31390    0.13890  112.67000  112.67000  # c,c1,c,c1
dihedral_coeff	10 at    0.31130    0.45160   -0.19880   -0.24540    0.00000   -0.11360  112.67000  110.77000  # c,c1,c,hc
dihedral_coeff	11 at    0.00000    0.00000    0.00000    0.00000    0.00000    0.00000  112.67000  107.41000  # c,c1,c,o_2
dihedral_coeff	12 at    0.38860   -0.31390    0.13890    0.38860   -0.31390    0.13890  112.67000  112.67000  # c,c1,c1,c
dihedral_coeff	13 at    0.31130    0.45160   -0.19880   -0.24540    0.00000   -0.11360  112.67000  110.77000  # c,c1,c1,hc
dihedral_coeff	14 at    0.56230   -0.30410   -0.40150    0.96720   -0.75660   -1.23310  112.67000  111.27000  # c,c1,c1,o3e
dihedral_coeff	15 at    0.56230   -0.30410   -0.40150    0.96720   -0.75660   -1.23310  112.67000  111.27000  # c,c1,c1,oc
dihedral_coeff	16 at    0.56230   -0.30410   -0.40150    0.96720   -0.75660   -1.23310  112.67000  111.27000  # c,c1,c1,oh
dihedral_coeff	17 at    0.67500    0.59650    0.67250    0.08850   -1.37030   -0.54520  108.52950  123.14510  # c,c1,c_1,o_1
dihedral_coeff	18 at    0.00000    0.00000    0.00000    0.00000    0.00000    0.00000  108.52950  100.31820  # c,c1,c_1,o_2
dihedral_coeff	19 at    0.56760    0.94500    0.07030   -2.74660    1.48770   -0.89550  111.27000  104.50000  # c,c1,o3e,c1
dihedral_coeff	20 at    0.56760    0.94500    0.07030   -2.74660    1.48770   -0.89550  111.27000  104.50000  # c,c1,oc,c1
dihedral_coeff	21 at    0.00000    0.00000    0.00000    0.00000    0.00000    0.00000  111.27000  109.00000  # c,c1,oh,h
dihedral_coeff	22 at    0.00000    0.00000    0.00000    0.00000    0.00000    0.00000  113.28800  100.31820  # c,o_2,c_1,c1
dihedral_coeff	23 at    0.00000    0.00000    0.00000    0.00000    0.00000    0.00000  113.28800  120.79700  # c,o_2,c_1,o_1
dihedral_coeff	24 at    0.38860   -0.31390    0.13890    0.38860   -0.31390    0.13890  112.67000  112.67000  # c1,c,c,c1
dihedral_coeff	25 at   -0.24540    0.00000   -0.11360    0.31130    0.45160   -0.19880  112.67000  110.77000  # c1,c,c,hc
dihedral_coeff	26 at    0.38860   -0.31390    0.13890    0.38860   -0.31390    0.13890  112.67000  112.67000  # c1,c,c1,c1
dihedral_coeff	27 at    0.05150   -0.06740   -0.04740   -0.26070    0.32030   -0.22830  112.67000  108.52950  # c1,c,c1,c_1
dihedral_coeff	28 at   -0.24540    0.00000   -0.11360    0.31130    0.45160   -0.19880  112.67000  110.77000  # c1,c,c1,hc
dihedral_coeff	29 at    0.56230   -0.30410   -0.40150    0.96720   -0.75660   -1.23310  112.67000  111.27000  # c1,c,c1,o3e
dihedral_coeff	30 at    0.56230   -0.30410   -0.40150    0.96720   -0.75660   -1.23310  112.67000  111.27000  # c1,c,c1,oc
dihedral_coeff	31 at    0.56230   -0.30410   -0.40150    0.96720   -0.75660   -1.23310  112.67000  111.27000  # c1,c,c1,oh
dihedral_coeff	32 at    0.00000    0.00000    0.00000    0.00000    0.00000    0.00000  107.41000  113.28800  # c1,c,o_2,c_1
dihedral_coeff	33 at   -0.24540    0.00000   -0.11360    0.31130    0.45160   -0.19880  112.67000  110.77000  # c1,c1,c,hc
dihedral_coeff	34 at   -2.74660    1.48770   -0.89550    0.56760    0.94500    0.07030  111.27000  104.50000  # c1,c1,oc,c1
dihedral_coeff	35 at    0.00000    0.00000    0.00000    0.00000    0.00000    0.00000  111.27000  109.00000  # c1,c1,oh,h
dihedral_coeff	36 at   -0.77770    0.43400   -0.66530   -1.82340    1.63930    0.51440  104.50000  108.72800  # c1,o3e,c1,hc
dihedral_coeff	37 at   -0.77770    0.43400   -0.66530   -1.82340    1.63930    0.51440  104.50000  108.72800  # c1,oc,c1,hc
dihedral_coeff	38 at   -0.74660   -0.94480   -0.63210    0.01620    1.42110   -1.40920  108.52950  110.77000  # c_1,c1,c,hc
dihedral_coeff	39 at    0.00000    0.00000    0.00000    0.00000    0.00000    0.00000  113.28800  107.68800  # c_1,o_2,c,hc
dihedral_coeff	40 at    0.00000    0.00000    0.00000    0.00000    0.00000    0.00000  109.00000  108.72800  # h,oh,c1,hc
dihedral_coeff	41 at   -0.80850    0.55690   -0.24660   -0.80850    0.55690   -0.24660  110.77000  110.77000  # hc,c,c,hc
dihedral_coeff	42 at   -0.80850    0.55690   -0.24660   -0.80850    0.55690   -0.24660  110.77000  110.77000  # hc,c,c1,hc
dihedral_coeff	43 at    2.36680    2.49200   -1.01220   -0.18920    0.49180    0.72730  110.77000  111.27000  # hc,c,c1,o3e
dihedral_coeff	44 at    2.36680    2.49200   -1.01220   -0.18920    0.49180    0.72730  110.77000  111.27000  # hc,c,c1,oc
dihedral_coeff	45 at    2.36680    2.49200   -1.01220   -0.18920    0.49180    0.72730  110.77000  111.27000  # hc,c,c1,oh
dihedral_coeff	46 at    0.00000    0.00000    0.00000    0.00000    0.00000    0.00000  110.77000  107.41000  # hc,c1,c,o_2
dihedral_coeff	47 at   -0.80850    0.55690   -0.24660   -0.80850    0.55690   -0.24660  110.77000  110.77000  # hc,c1,c1,hc
dihedral_coeff	48 at    2.36680    2.49200   -1.01220   -0.18920    0.49180    0.72730  110.77000  111.27000  # hc,c1,c1,o3e
dihedral_coeff	49 at    2.36680    2.49200   -1.01220   -0.18920    0.49180    0.72730  110.77000  111.27000  # hc,c1,c1,oc
dihedral_coeff	50 at    2.36680    2.49200   -1.01220   -0.18920    0.49180    0.72730  110.77000  111.27000  # hc,c1,c1,oh
dihedral_coeff	51 at   -1.49460    0.73080   -0.20830    9.12990   -0.48470    0.35820  107.73360  123.14510  # hc,c1,c_1,o_1
dihedral_coeff	52 at    0.00000    0.00000    0.00000    0.00000    0.00000    0.00000  107.73360  100.31820  # hc,c1,c_1,o_2
dihedral_coeff	53 at    0.55110    0.97370   -0.66730    0.55110    0.97370   -0.66730  111.27000  111.27000  # oc,c1,c1,oc
dihedral_coeff	54 at    0.55110    0.97370   -0.66730    0.55110    0.97370   -0.66730  111.27000  111.27000  # oc,c1,c1,oh

# AngleAngleTorsion Coeffs

dihedral_coeff	 1 aat  -22.04500  112.67000  112.67000  # c,c,c,c1
dihedral_coeff	 2 aat  -16.16400  112.67000  110.77000  # c,c,c,hc
dihedral_coeff	 3 aat  -22.04500  112.67000  112.67000  # c,c,c1,c
dihedral_coeff	 4 aat  -22.04500  112.67000  112.67000  # c,c,c1,c1
dihedral_coeff	 5 aat   -0.38010  112.67000  108.52950  # c,c,c1,c_1
dihedral_coeff	 6 aat  -16.16400  112.67000  110.77000  # c,c,c1,hc
dihedral_coeff	 7 aat  -29.04200  112.67000  111.27000  # c,c,c1,o3e
dihedral_coeff	 8 aat  -29.04200  112.67000  111.27000  # c,c,c1,oc
dihedral_coeff	 9 aat  -22.04500  112.67000  112.67000  # c,c1,c,c1
dihedral_coeff	10 aat  -16.16400  112.67000  110.77000  # c,c1,c,hc
dihedral_coeff	11 aat    0.00000  112.67000  107.41000  # c,c1,c,o_2
dihedral_coeff	12 aat  -22.04500  112.67000  112.67000  # c,c1,c1,c
dihedral_coeff	13 aat  -16.16400  112.67000  110.77000  # c,c1,c1,hc
dihedral_coeff	14 aat  -29.04200  112.67000  111.27000  # c,c1,c1,o3e
dihedral_coeff	15 aat  -29.04200  112.67000  111.27000  # c,c1,c1,oc
dihedral_coeff	16 aat  -29.04200  112.67000  111.27000  # c,c1,c1,oh
dihedral_coeff	17 aat   -8.01900  108.52950  123.14510  # c,c1,c_1,o_1
dihedral_coeff	18 aat    0.00000  108.52950  100.31820  # c,c1,c_1,o_2
dihedral_coeff	19 aat  -19.00590  111.27000  104.50000  # c,c1,o3e,c1
dihedral_coeff	20 aat  -19.00590  111.27000  104.50000  # c,c1,oc,c1
dihedral_coeff	21 aat    0.00000  111.27000  109.00000  # c,c1,oh,h
dihedral_coeff	22 aat    0.00000  113.28800  100.31820  # c,o_2,c_1,c1
dihedral_coeff	23 aat    0.00000  113.28800  120.79700  # c,o_2,c_1,o_1
dihedral_coeff	24 aat  -22.04500  112.67000  112.67000  # c1,c,c,c1
dihedral_coeff	25 aat  -16.16400  112.67000  110.77000  # c1,c,c,hc
dihedral_coeff	26 aat  -22.04500  112.67000  112.67000  # c1,c,c1,c1
dihedral_coeff	27 aat   -0.38010  112.67000  108.52950  # c1,c,c1,c_1
dihedral_coeff	28 aat  -16.16400  112.67000  110.77000  # c1,c,c1,hc
dihedral_coeff	29 aat  -29.04200  112.67000  111.27000  # c1,c,c1,o3e
dihedral_coeff	30 aat  -29.04200  112.67000  111.27000  # c1,c,c1,oc
dihedral_coeff	31 aat  -29.04200  112.67000  111.27000  # c1,c,c1,oh
dihedral_coeff	32 aat    0.00000  107.41000  113.28800  # c1,c,o_2,c_1
dihedral_coeff	33 aat  -16.16400  112.67000  110.77000  # c1,c1,c,hc
dihedral_coeff	34 aat  -19.00590  111.27000  104.50000  # c1,c1,oc,c1
dihedral_coeff	35 aat    0.00000  111.27000  109.00000  # c1,c1,oh,h
dihedral_coeff	36 aat  -16.44380  104.50000  108.72800  # c1,o3e,c1,hc
dihedral_coeff	37 aat  -16.44380  104.50000  108.72800  # c1,oc,c1,hc
dihedral_coeff	38 aat   -5.36240  108.52950  110.77000  # c_1,c1,c,hc
dihedral_coeff	39 aat    0.00000  113.28800  107.68800  # c_1,o_2,c,hc
dihedral_coeff	40 aat    0.00000  109.00000  108.72800  # h,oh,c1,hc
dihedral_coeff	41 aat  -12.56400  110.77000  110.77000  # hc,c,c,hc
dihedral_coeff	42 aat  -12.56400  110.77000  110.77000  # hc,c,c1,hc
dihedral_coeff	43 aat  -20.20060  110.77000  111.27000  # hc,c,c1,o3e
dihedral_coeff	44 aat  -20.20060  110.77000  111.27000  # hc,c,c1,oc
dihedral_coeff	45 aat  -20.20060  110.77000  111.27000  # hc,c,c1,oh
dihedral_coeff	46 aat    0.00000  110.77000  107.41000  # hc,c1,c,o_2
dihedral_coeff	47 aat  -12.56400  110.77000  110.77000  # hc,c1,c1,hc
dihedral_coeff	48 aat  -20.20060  110.77000  111.27000  # hc,c1,c1,o3e
dihedral_coeff	49 aat  -20.20060  110.77000  111.27000  # hc,c1,c1,oc
dihedral_coeff	50 aat  -20.20060  110.77000  111.27000  # hc,c1,c1,oh
dihedral_coeff	51 aat  -15.34960  107.73360  123.14510  # hc,c1,c_1,o_1
dihedral_coeff	52 aat    0.00000  107.73360  100.31820  # hc,c1,c_1,o_2
dihedral_coeff	53 aat  -14.04840  111.27000  111.27000  # oc,c1,c1,oc
dihedral_coeff	54 aat  -14.04840  111.27000  111.27000  # oc,c1,c1,oh

# BondBond13 Coeffs

dihedral_coeff	 1 bb13    0.00000    1.53000    1.53000  # c,c,c,c1
dihedral_coeff	 2 bb13    0.00000    1.53000    1.10100  # c,c,c,hc
dihedral_coeff	 3 bb13    0.00000    1.53000    1.53000  # c,c,c1,c
dihedral_coeff	 4 bb13    0.00000    1.53000    1.53000  # c,c,c1,c1
dihedral_coeff	 5 bb13    0.00000    1.53000    1.52020  # c,c,c1,c_1
dihedral_coeff	 6 bb13    0.00000    1.53000    1.10100  # c,c,c1,hc
dihedral_coeff	 7 bb13    0.00000    1.53000    1.42000  # c,c,c1,o3e
dihedral_coeff	 8 bb13    0.00000    1.53000    1.42000  # c,c,c1,oc
dihedral_coeff	 9 bb13    0.00000    1.53000    1.53000  # c,c1,c,c1
dihedral_coeff	10 bb13    0.00000    1.53000    1.10100  # c,c1,c,hc
dihedral_coeff	11 bb13    0.00000    1.53000    1.43000  # c,c1,c,o_2
dihedral_coeff	12 bb13    0.00000    1.53000    1.53000  # c,c1,c1,c
dihedral_coeff	13 bb13    0.00000    1.53000    1.10100  # c,c1,c1,hc
dihedral_coeff	14 bb13    0.00000    1.53000    1.42000  # c,c1,c1,o3e
dihedral_coeff	15 bb13    0.00000    1.53000    1.42000  # c,c1,c1,oc
dihedral_coeff	16 bb13    0.00000    1.53000    1.42000  # c,c1,c1,oh
dihedral_coeff	17 bb13    0.00000    1.53000    1.20200  # c,c1,c_1,o_1
dihedral_coeff	18 bb13    0.00000    1.53000    1.36830  # c,c1,c_1,o_2
dihedral_coeff	19 bb13    0.00000    1.53000    1.42000  # c,c1,o3e,c1
dihedral_coeff	20 bb13    0.00000    1.53000    1.42000  # c,c1,oc,c1
dihedral_coeff	21 bb13    0.00000    1.53000    0.96000  # c,c1,oh,h
dihedral_coeff	22 bb13    0.00000    1.43000    1.52020  # c,o_2,c_1,c1
dihedral_coeff	23 bb13    0.00000    1.43000    1.20200  # c,o_2,c_1,o_1
dihedral_coeff	24 bb13    0.00000    1.53000    1.53000  # c1,c,c,c1
dihedral_coeff	25 bb13    0.00000    1.53000    1.10100  # c1,c,c,hc
dihedral_coeff	26 bb13    0.00000    1.53000    1.53000  # c1,c,c1,c1
dihedral_coeff	27 bb13    0.00000    1.53000    1.52020  # c1,c,c1,c_1
dihedral_coeff	28 bb13    0.00000    1.53000    1.10100  # c1,c,c1,hc
dihedral_coeff	29 bb13    0.00000    1.53000    1.42000  # c1,c,c1,o3e
dihedral_coeff	30 bb13    0.00000    1.53000    1.42000  # c1,c,c1,oc
dihedral_coeff	31 bb13    0.00000    1.53000    1.42000  # c1,c,c1,oh
dihedral_coeff	32 bb13    0.00000    1.53000    1.36830  # c1,c,o_2,c_1
dihedral_coeff	33 bb13    0.00000    1.53000    1.10100  # c1,c1,c,hc
dihedral_coeff	34 bb13    0.00000    1.53000    1.42000  # c1,c1,oc,c1
dihedral_coeff	35 bb13    0.00000    1.53000    0.96000  # c1,c1,oh,h
dihedral_coeff	36 bb13    0.00000    1.42000    1.10100  # c1,o3e,c1,hc
dihedral_coeff	37 bb13    0.00000    1.42000    1.10100  # c1,oc,c1,hc
dihedral_coeff	38 bb13    0.00000    1.52020    1.10100  # c_1,c1,c,hc
dihedral_coeff	39 bb13    0.00000    1.36830    1.10100  # c_1,o_2,c,hc
dihedral_coeff	40 bb13    0.00000    0.96000    1.10100  # h,oh,c1,hc
dihedral_coeff	41 bb13    0.00000    1.10100    1.10100  # hc,c,c,hc
dihedral_coeff	42 bb13    0.00000    1.10100    1.10100  # hc,c,c1,hc
dihedral_coeff	43 bb13    0.00000    1.10100    1.42000  # hc,c,c1,o3e
dihedral_coeff	44 bb13    0.00000    1.10100    1.42000  # hc,c,c1,oc
dihedral_coeff	45 bb13    0.00000    1.10100    1.42000  # hc,c,c1,oh
dihedral_coeff	46 bb13    0.00000    1.10100    1.43000  # hc,c1,c,o_2
dihedral_coeff	47 bb13    0.00000    1.10100    1.10100  # hc,c1,c1,hc
dihedral_coeff	48 bb13    0.00000    1.10100    1.42000  # hc,c1,c1,o3e
dihedral_coeff	49 bb13    0.00000    1.10100    1.42000  # hc,c1,c1,oc
dihedral_coeff	50 bb13    0.00000    1.10100    1.42000  # hc,c1,c1,oh
dihedral_coeff	51 bb13    0.00000    1.10100    1.20200  # hc,c1,c_1,o_1
dihedral_coeff	52 bb13    0.00000    1.10100    1.36830  # hc,c1,c_1,o_2
dihedral_coeff	53 bb13    0.00000    1.42000    1.42000  # oc,c1,c1,oc
dihedral_coeff	54 bb13    0.00000    1.42000    1.42000  # oc,c1,c1,oh

# Improper Coeffs

improper_coeff	 1    0.00000    0.00000  # c,c,c,hc
improper_coeff	 2    0.00000    0.00000  # c,c,c1,hc
improper_coeff	 3    0.00000    0.00000  # c,c,hc,c1
improper_coeff	 4    0.00000    0.00000  # c,c,hc,hc
improper_coeff	 5    0.00000    0.00000  # c,c1,c1,hc
improper_coeff	 6    0.00000    0.00000  # c,c1,hc,hc
improper_coeff	 7    0.00000    0.00000  # c,c1,hc,o_2
improper_coeff	 8    0.00000    0.00000  # c,c1,o_2,hc
improper_coeff	 9    0.00000    0.00000  # c,hc,hc,o_2
improper_coeff	10    0.00000    0.00000  # c1,c,c,c
improper_coeff	11    0.00000    0.00000  # c1,c,c,c_1
improper_coeff	12    0.00000    0.00000  # c1,c,c,hc
improper_coeff	13    0.00000    0.00000  # c1,c,c,oc
improper_coeff	14    0.00000    0.00000  # c1,c,c1,hc
improper_coeff	15    0.00000    0.00000  # c1,c,c1,o3e
improper_coeff	16    0.00000    0.00000  # c1,c,c1,oc
improper_coeff	17    0.00000    0.00000  # c1,c,c1,oh
improper_coeff	18    0.00000    0.00000  # c1,c,c_1,hc
improper_coeff	19    0.00000    0.00000  # c1,c,hc,c1
improper_coeff	20    0.00000    0.00000  # c1,c,hc,c_1
improper_coeff	21    0.00000    0.00000  # c1,c,hc,o3e
improper_coeff	22    0.00000    0.00000  # c1,c,hc,oc
improper_coeff	23    0.00000    0.00000  # c1,c,hc,oh
improper_coeff	24    0.00000    0.00000  # c1,c,o3e,hc
improper_coeff	25    0.00000    0.00000  # c1,c,oc,c1
improper_coeff	26    0.00000    0.00000  # c1,c,oc,hc
improper_coeff	27    0.00000    0.00000  # c1,c1,hc,oc
improper_coeff	28    0.00000    0.00000  # c1,c1,o3e,hc
improper_coeff	29    0.00000    0.00000  # c1,c1,oc,hc
improper_coeff	30    0.00000    0.00000  # c1,c1,oh,hc
improper_coeff	31   46.92640    0.00000  # c_1,c1,o_1,o_2
improper_coeff	32   46.92640    0.00000  # c_1,c1,o_2,o_1

# AngleAngle Coeffs

improper_coeff	 1 aa    0.00000    0.00000    0.11840  112.67000  110.77000  110.77000  # c,c,c,hc
improper_coeff	 2 aa    0.00000   -1.31990    0.00000  112.67000  110.77000  110.77000  # c,c,c1,hc
improper_coeff	 3 aa    0.00000   -1.31990    0.00000  110.77000  112.67000  110.77000  # c,c,hc,c1
improper_coeff	 4 aa    0.00000   -0.48250    0.00000  110.77000  110.77000  107.66000  # c,c,hc,hc
improper_coeff	 5 aa   -1.31990   -1.31990    0.11840  112.67000  110.77000  110.77000  # c,c1,c1,hc
improper_coeff	 6 aa    0.27380   -0.48250    0.27380  110.77000  110.77000  107.66000  # c,c1,hc,hc
improper_coeff	 7 aa    0.00000    0.00000    0.00000  110.77000  107.41000  107.68800  # c,c1,hc,o_2
improper_coeff	 8 aa    0.00000    0.00000    0.00000  107.41000  110.77000  107.68800  # c,c1,o_2,hc
improper_coeff	 9 aa    0.00000    0.00000    0.00000  107.66000  107.68800  107.68800  # c,hc,hc,o_2
improper_coeff	10 aa   -0.17290   -0.17290   -0.17290  112.67000  112.67000  112.67000  # c1,c,c,c
improper_coeff	11 aa    0.00000    0.00000    0.00000  112.67000  108.52950  108.52950  # c1,c,c,c_1
improper_coeff	12 aa    0.00000    0.00000    0.11840  112.67000  110.77000  110.77000  # c1,c,c,hc
improper_coeff	13 aa   -0.83300   -0.83300   -3.57440  112.67000  111.27000  111.27000  # c1,c,c,oc
improper_coeff	14 aa    0.00000   -1.31990    0.00000  112.67000  110.77000  110.77000  # c1,c,c1,hc
improper_coeff	15 aa   -0.83300   -0.83300    0.00000  112.67000  111.27000  111.27000  # c1,c,c1,o3e
improper_coeff	16 aa   -0.83300   -0.83300    0.00000  112.67000  111.27000  111.27000  # c1,c,c1,oc
improper_coeff	17 aa   -0.83300   -0.83300    0.00000  112.67000  111.27000  111.27000  # c1,c,c1,oh
improper_coeff	18 aa    0.00000   -1.82020    0.00000  108.52950  110.77000  107.73360  # c1,c,c_1,hc
improper_coeff	19 aa    0.00000   -1.31990    0.00000  110.77000  112.67000  110.77000  # c1,c,hc,c1
improper_coeff	20 aa    0.00000   -1.82020    0.00000  110.77000  108.52950  107.73360  # c1,c,hc,c_1
improper_coeff	21 aa    3.91770    2.59260    0.00000  110.77000  111.27000  108.72800  # c1,c,hc,o3e
improper_coeff	22 aa    3.91770    2.59260    0.00000  110.77000  111.27000  108.72800  # c1,c,hc,oc
improper_coeff	23 aa    3.91770    2.59260    0.00000  110.77000  111.27000  108.72800  # c1,c,hc,oh
improper_coeff	24 aa    0.00000    2.59260    3.91770  111.27000  110.77000  108.72800  # c1,c,o3e,hc
improper_coeff	25 aa    0.00000   -0.83300   -0.83300  111.27000  112.67000  111.27000  # c1,c,oc,c1
improper_coeff	26 aa    0.00000    2.59260    3.91770  111.27000  110.77000  108.72800  # c1,c,oc,hc
improper_coeff	27 aa    3.91770    2.59260    0.16890  110.77000  111.27000  108.72800  # c1,c1,hc,oc
improper_coeff	28 aa    0.16890    2.59260    3.91770  111.27000  110.77000  108.72800  # c1,c1,o3e,hc
improper_coeff	29 aa    0.16890    2.59260    3.91770  111.27000  110.77000  108.72800  # c1,c1,oc,hc
improper_coeff	30 aa    0.16890    2.59260    3.91770  111.27000  110.77000  108.72800  # c1,c1,oh,hc
improper_coeff	31 aa    0.00000    0.00000    0.00000  123.14510  100.31820  120.79700  # c_1,c1,o_1,o_2
improper_coeff	32 aa    0.00000    0.00000    0.00000  100.31820  123.14510  120.79700  # c_1,c1,o_2,o_1

# ------------------------------- OPT Section -------------------------------
minimize 1.0e-5 1.0e-7 100000 400000
PPPM initialization ...
  using 12-bit tables for long-range coulomb (../kspace.cpp:342)
  G vector (1/distance) = 0.15373212
  grid = 6 6 6
  stencil order = 5
  estimated absolute RMS force accuracy = 0.28183109
  estimated relative force accuracy = 0.00084872597
  using double precision KISS FFT
  3d grid and FFT values/proc = 392 12
Generated 45 of 45 mixed pair_coeff terms from sixthpower/sixthpower mixing rule
Neighbor list info ...
  update: every = 1 steps, delay = 0 steps, check = yes
  max neighbors/atom: 2000, page size: 100000
  master list distance cutoff = 12
  ghost atom cutoff = 12
  binsize = 6, bins = 7 7 7
  1 neighbor lists, perpetual/occasional/extra = 1 0 0
  (1) pair lj/class2/coul/long, perpetual
      attributes: half, newton on
      pair build: half/bin/newton
      stencil: half/bin/3d
      bin: standard
WARNING: Inconsistent image flags (../domain.cpp:815)
  PPPM/cg optimization cutoff: 1e-05
  Total charged atoms: 100.0%
  Min/max charged atoms/proc: 100.0% 100.0%
Per MPI rank memory allocation (min/avg/max) = 17.25 | 17.26 | 17.26 Mbytes
   Step          Temp          E_pair         E_mol          TotEng         Press     
         0   616.26499      756.38559      17921.839      27773.058     -2047.3911    
       102   616.26499      101.93085      9788.1817      18984.945      4342.4579    
Loop time of 1.18088 on 24 procs for 102 steps with 4952 atoms

99.4% CPU use with 24 MPI tasks x no OpenMP threads

Minimization stats:
  Stopping criterion = linesearch alpha is zero
  Energy initial, next-to-last, final = 
      18678.2248350219   9890.11251552066   9890.11251552066
  Force two-norm initial, final = 3443.9772 88.876979
  Force max component initial, final = 184.19764 36.648585
  Final line search alpha, max atom move = 7.5498432e-13 2.7669107e-11
  Iterations, force evaluations = 102 266

MPI task timing breakdown:
Section |  min time  |  avg time  |  max time  |%varavg| %total
---------------------------------------------------------------
Pair    | 0.58034    | 0.67865    | 0.8479     |   8.0 | 57.47
Bond    | 0.169      | 0.20367    | 0.23853    |   3.9 | 17.25
Kspace  | 0.058211   | 0.26214    | 0.38043    |  15.6 | 22.20
Neigh   | 0.0029513  | 0.002954   | 0.0029579  |   0.0 |  0.25
Comm    | 0.02595    | 0.026829   | 0.028132   |   0.4 |  2.27
Output  | 0          | 0          | 0          |   0.0 |  0.00
Modify  | 0          | 0          | 0          |   0.0 |  0.00
Other   |            | 0.006634   |            |       |  0.56

Nlocal:        206.333 ave         233 max         179 min
Histogram: 2 3 1 1 1 6 4 4 1 1
Nghost:        4635.04 ave        4731 max        4536 min
Histogram: 1 2 3 2 3 3 5 2 1 2
Neighs:        69156.7 ave       87772 max       58128 min
Histogram: 1 4 6 5 2 2 1 1 1 1

Total # of neighbors = 1659761
Ave neighs/atom = 335.16983
Ave special neighs/atom = 6.4321486
Neighbor list builds = 1
Dangerous builds = 0
# ------------------------------- Run Section -------------------------------
#

timestep 0.25
neighbor        2.0 bin
neigh_modify    delay 0 every 1 check yes

thermo_style custom step temp pe evdwl ecoul ebond eangle edihed eimp density vol
thermo 20000

variable        Rho equal density
variable        Temp equal temp
variable        Volume equal vol
fix             fDENS all ave/time 100 100 300000 v_Temp v_Rho v_Volume file temp_vs_density.txt
fix def1 all print 100 "${Temp} ${Rho} ${Volume} " file press.dat screen no

label           loop
variable        a loop 26
variable        b equal 600-20*($a-1)
variable        b equal 600-20*(1-1)
fix             fMOM all momentum 100 linear 1 1 1 angular
fix             fNPT all npt temp $b $b $(100.0*dt) iso 1 1 $(100.0*dt)
fix             fNPT all npt temp 600 $b $(100.0*dt) iso 1 1 $(100.0*dt)
fix             fNPT all npt temp 600 600 $(100.0*dt) iso 1 1 $(100.0*dt)
fix             fNPT all npt temp 600 600 25 iso 1 1 $(100.0*dt)
fix             fNPT all npt temp 600 600 25 iso 1 1 25
run             1200000
PPPM initialization ...
  using 12-bit tables for long-range coulomb (../kspace.cpp:342)
  G vector (1/distance) = 0.15373212
  grid = 6 6 6
  stencil order = 5
  estimated absolute RMS force accuracy = 0.28183109
  estimated relative force accuracy = 0.00084872597
  using double precision KISS FFT
  3d grid and FFT values/proc = 392 12
Generated 45 of 45 mixed pair_coeff terms from sixthpower/sixthpower mixing rule
WARNING: Inconsistent image flags (../domain.cpp:815)
Per MPI rank memory allocation (min/avg/max) = 16.13 | 16.13 | 16.14 Mbytes
   Step          Temp          PotEng         E_vdwl         E_coul         E_bond        E_angle        E_dihed        E_impro        Density         Volume    
       102   616.26499      9890.1125     -1274.8662      6091.733       405.75797      13724.835     -4300.5815     -41.830077      1.0196413      53437.349    
     20000   596.62152      18524.733     -521.81285      6117.4133      3785.1844      17666.07      -3847.8292      38.765884      0.9987544      54554.883    
     40000   600.12749      18700.453     -514.4483       6132.0793      3836.5856      17822.304     -3889.8998      28.321021      1.014778       53693.447    
     60000   601.46085      18651.69      -644.16305      6113.2484      3937.134       17799.925     -3881.831       38.033325      1.016026       53627.496    
     80000   607.08772      18687.406     -616.05012      6124.0815      3848.4143      17871.704     -3863.6303      37.336805      1.0271432      53047.06     
    100000   609.08767      18842.444     -431.23145      6144.7072      3926.3635      17861.969     -3977.1892      30.722785      1.0038447      54278.247    
    120000   602.89471      18592.828     -553.31433      6108.8426      3964.7572      17630.324     -3880.5275      35.299822      1.0191828      53461.39     
    140000   600.70654      18746.05      -532.94254      6118.8045      3923.6739      17785.246     -3868.3789      30.787387      1.016578       53598.375    
    160000   603.26441      18821.781     -523.36038      6113.5593      3868.9893      17918.455     -3871.8472      27.658541      1.0033263      54306.288    
    180000   601.05098      18504.227     -727.24501      6114.1731      3798.3116      17828.91      -3835.6546      40.107546      1.0285687      52973.545    
    200000   588.89248      18732.016     -551.41483      6084.8487      3917.9572      17796.398     -3836.151       33.793806      1.0241941      53199.806    
    220000   595.89656      18409.143     -634.14685      6077.7062      3884.8898      17606.999     -3848.8568      33.056132      1.0199656      53420.362    
    240000   610.40455      18660.671     -545.76505      6117.9948      3794.4102      17876.263     -3890.7795      22.007733      1.0240709      53206.209    
    260000   605.18015      18702.153     -593.46152      6108.7555      3886.8611      17806.462     -3826.6438      32.507158      1.0209115      53370.865    
    280000   594.25669      18534.693     -603.84024      6102.136       3696.664       17838.837     -3819.6165      31.080032      1.0243014      53194.234    
    300000   588.6183       18666.553     -648.07474      6107.8202      3893.9785      17879.558     -3898.9393      45.079249      1.0413717      52322.267    
    320000   597.12012      18729.938     -587.92321      6088.6304      3950.9176      17824.449     -3878.9508      41.424302      1.0248242      53167.096    
    340000   606.86473      18690.553     -593.33061      6089.762       3835.3095      17869.089     -3837.3211      38.999556      1.0132893      53772.33     
    360000   590.13071      18730.551     -542.0263       6095.2582      3987.7869      17666.105     -3790.8493      23.843135      1.0183467      53505.285    
    380000   608.22812      18757.686     -629.3584       6101.1636      3907.7833      17934.486     -3879.567       33.20994       1.0158585      53636.335    
    400000   608.91654      18595.951     -645.63406      6119.2991      3789.7812      17866.353     -3847.1974      23.406522      1.0305309      52872.676    
    420000   610.98007      18654.441     -608.84909      6093.8087      3939.411       17776.763     -3865.8385      30.389477      1.0234631      53237.803    
    440000   594.12899      18652.95      -588.91987      6119.9132      3879.7778      17817.024     -3901.0673      40.061782      1.0223738      53294.53     
    460000   599.33986      18423.183     -713.86912      6103.1206      3873.7809      17708.8       -3878.1326      42.282439      1.0349157      52648.662    
    480000   595.13338      18532.844     -600.07022      6105.5198      3900.518       17698.389     -3897.7073      39.615476      1.0059199      54166.272    
    500000   605.40204      18490.978     -628.80698      6106.0939      3835.219       17705.214     -3841.7414      27.82474       1.0232636      53248.187    
    520000   598.8692       18629.811     -586.75876      6096.3179      3885.3802      17814.361     -3895.9245      27.154032      1.0325265      52770.49     
    540000   595.67668      18763.22      -591.54217      6117.7029      3961.9217      17837.652     -3876.0297      24.718602      1.0170987      53570.937    
    560000   590.48664      18730         -554.14729      6095.6097      3892.6063      17855.158     -3871.4812      23.877682      1.0275815      53024.438    
    580000   602.15195      18653.887     -647.54906      6128.3319      3904.644       17774.647     -3812.2803      19.092547      1.0304282      52877.948    
    600000   601.09332      18749.631     -605.25346      6115.8787      3989.6272      17756.987     -3823.6584      31.215632      1.0231739      53252.851    
    620000   599.19875      18479.133     -607.67068      6111.1928      3828.419       17672.549     -3840.5572      28.586551      1.030268       52886.172    
    640000   617.27807      18380.544     -743.2098       6103.73        3804.0456      17819.027     -3923.8595      35.391519      1.03757        52513.978    
    660000   601.48913      18648.869     -626.39821      6091.5224      3891.4478      17916.267     -3936.6841      25.809322      1.0159026      53634.007    
    680000   597.07925      18636.783     -598.51747      6095.3668      3872.3896      17782.752     -3844.0372      41.493453      1.0212138      53355.064    
    700000   599.69555      18669.806     -615.55168      6103.1268      3911.2329      17854.827     -3916.3324      43.93555       1.022497       53288.106    
    720000   606.8493       18567.209     -597.18751      6101.9848      3843.1086      17794.598     -3895.1493      32.13589       1.0338032      52705.32     
    740000   591.60413      18502.046     -654.08668      6140.1247      3908.6956      17703.696     -3903.2418      19.290813      1.0279248      53006.726    
    760000   598.73761      18767.098     -620.88072      6112.9414      3915.4177      17906.532     -3866.2215      33.835927      1.0346569      52661.831    
    780000   601.55355      18437.611     -669.88232      6124.0429      3923.6775      17654.457     -3908.7968      27.94314       1.0180986      53518.324    
    800000   600.8349       18555.11      -598.78688      6095.0191      3810.1457      17810.484     -3888.2052      40.573154      1.0450809      52136.565    
    820000   598.08923      18556.219     -599.46937      6104.6575      3948.0179      17629.812     -3841.0486      28.961987      1.0174474      53552.575    
    840000   590.63213      18705.409     -551.52947      6099.3534      3935.8624      17779.761     -3880.3011      38.092379      1.03271        52761.114    
    860000   593.89533      18681.202     -557.73694      6112.3379      3939.3175      17664.93      -3799.3634      36.26516       1.0191297      53464.174    
    880000   600.79645      18511.688     -613.46467      6102.7322      3836.3378      17760.095     -3884.576       24.135274      1.0339648      52697.084    
    900000   595.2175       18520.627     -666.8259       6105.4616      3905.8123      17761.871     -3899.583       27.423005      1.0357776      52604.853    
    920000   602.88701      18733.594     -582.83455      6111.2451      3962.9534      17776.42      -3856.6143      35.607289      1.0187245      53485.441    
    940000   599.85184      18689.393     -672.17975      6098.9889      4072.2324      17774.822     -3904.0614      30.979465      1.0391673      52433.258    
    960000   610.92642      18486.057     -606.07297      6120.7914      3790.2429      17796.434     -3926.1254      23.671268      1.024212       53198.878    
    980000   601.86159      18609.518     -678.57493      6087.2536      4033.1819      17697.281     -3862.1094      43.410065      1.0413504      52323.338    
   1000000   599.97719      18587.221     -580.30615      6080.5457      3848.2903      17717.87      -3779.1766      11.962806      1.0328296      52755.004    
   1020000   601.10871      18692.501     -623.81749      6110.1318      3977.1963      17768.788     -3870.2522      43.274596      1.0302225      52888.504    
   1040000   599.07585      18463.438     -619.79543      6108.4416      3749.0051      17785.827     -3868.7106      21.097873      1.0354749      52620.23     
   1060000   590.61246      18642.511     -638.17024      6112.2374      3858.5242      17787.258     -3807.0103      43.818547      1.0381672      52483.768    
   1080000   593.69951      18564.309     -694.27079      6085.8441      3907.1158      17811.723     -3863.1699      30.763098      1.038127       52485.801    
   1100000   605.81607      18493.516     -596.999        6103.4902      3763.108       17762.296     -3852.935       29.756926      1.0391244      52435.426    
   1120000   599.00241      18428.599     -668.39084      6105.4646      3883.6051      17658.463     -3866.5245      25.903299      1.0343958      52675.127    
   1140000   590.69378      18620.937     -652.26683      6078.9519      3959.6375      17692.978     -3782.0229      36.529313      1.0284245      52980.971    
   1160000   598.98763      18372.383     -634.33025      6103.6909      3857.0484      17603.895     -3873.8949      27.969048      1.0260162      53105.333    
   1180000   600.83864      18639.239     -542.85069      6130.3588      3927.8313      17646.662     -3848.899       40.80053       1.0209242      53370.2      
   1200000   593.02008      18662.875     -621.38856      6105.5146      3866.3229      17804.116     -3815.9861      37.548432      1.0336058      52715.385    
   1200102   610.95044      18509.645     -658.81863      6112.1106      3851.9677      17686.791     -3819.2752      49.267339      1.0344057      52674.624    
Loop time of 4174.68 on 24 procs for 1200000 steps with 4952 atoms

Performance: 6.209 ns/day, 3.865 hours/ns, 287.447 timesteps/s, 1.423 Matom-step/s
99.5% CPU use with 24 MPI tasks x no OpenMP threads

MPI task timing breakdown:
Section |  min time  |  avg time  |  max time  |%varavg| %total
---------------------------------------------------------------
Pair    | 1769       | 2103.7     | 2529.6     | 368.9 | 50.39
Bond    | 697.21     | 807.41     | 933.34     | 193.8 | 19.34
Kspace  | 492.47     | 1043.5     | 1480       | 660.6 | 25.00
Neigh   | 46.575     | 46.615     | 46.65      |   0.3 |  1.12
Comm    | 120.86     | 123.36     | 126.33     |  12.6 |  2.96
Output  | 0.0034144  | 0.00404    | 0.017881   |   4.5 |  0.00
Modify  | 31.87      | 36.206     | 39.007     |  38.0 |  0.87
Other   |            | 13.79      |            |       |  0.33

Nlocal:        206.333 ave         230 max         175 min
Histogram: 1 0 4 2 3 1 5 2 4 2
Nghost:         4698.5 ave        4770 max        4625 min
Histogram: 2 0 1 3 7 4 3 1 0 3
Neighs:        70333.3 ave       80930 max       57584 min
Histogram: 1 4 0 1 3 4 2 5 2 2

Total # of neighbors = 1688000
Ave neighs/atom = 340.87237
Ave special neighs/atom = 6.4321486
Neighbor list builds = 15684
Dangerous builds = 0
unfix           fNPT
unfix           fMOM
next            a
jump            SELF loop
variable        a loop 26
variable        b equal 600-20*($a-1)
variable        b equal 600-20*(2-1)
fix             fMOM all momentum 100 linear 1 1 1 angular
fix             fNPT all npt temp $b $b $(100.0*dt) iso 1 1 $(100.0*dt)
fix             fNPT all npt temp 580 $b $(100.0*dt) iso 1 1 $(100.0*dt)
fix             fNPT all npt temp 580 580 $(100.0*dt) iso 1 1 $(100.0*dt)
fix             fNPT all npt temp 580 580 25 iso 1 1 $(100.0*dt)
fix             fNPT all npt temp 580 580 25 iso 1 1 25
run             1200000
PPPM initialization ...
  using 12-bit tables for long-range coulomb (../kspace.cpp:342)
  G vector (1/distance) = 0.15418422
  grid = 6 6 6
  stencil order = 5
  estimated absolute RMS force accuracy = 0.27993989
  estimated relative force accuracy = 0.00084303067
  using double precision KISS FFT
  3d grid and FFT values/proc = 392 12
Generated 45 of 45 mixed pair_coeff terms from sixthpower/sixthpower mixing rule
WARNING: Inconsistent image flags (../domain.cpp:815)
Per MPI rank memory allocation (min/avg/max) = 16.13 | 16.13 | 16.14 Mbytes
   Step          Temp          PotEng         E_vdwl         E_coul         E_bond        E_angle        E_dihed        E_impro        Density         Volume    
   1200102   610.95044      18509.592     -658.81863      6125.8614      3851.9677      17686.791     -3819.2752      49.267339      1.0344057      52674.624    
   1220000   584.71962      18331.576     -603.68515      6106.6574      3808.0987      17608.676     -3886.0044      25.903851      1.0442236      52179.368    
   1240000   576.18567      18314.104     -705.0027       6119.3934      3815.9684      17617.619     -3840.2248      35.139535      1.050468       51869.193    
   1260000   577.89819      18241.754     -640.49373      6140.0897      3734.6699      17592.537     -3901.3962      43.814978      1.027879       53009.087    
   1280000   588.86777      18358.58      -616.98611      6119.9215      3698.316       17765.818     -3906.0779      25.450297      1.0435393      52213.585    
   1300000   573.34874      18219.691     -603.77753      6138.1918      3734.2485      17582.083     -3924.9883      21.283619      1.0231323      53255.02     
   1320000   590.21036      18307.054     -596.17132      6126.5435      3702.9448      17754.148     -3962.9951      9.680032       1.0317475      52810.334    
   1340000   583.92241      18134.621     -664.86771      6109.9609      3660.6533      17600.225     -3873.0476      25.403547      1.0445643      52162.349    
   1360000   576.42277      18154.25      -686.42704      6113.8885      3669.8894      17596.695     -3831.2646      18.288576      1.0405987      52361.137    
   1380000   584.18376      18368.998     -637.59529      6100.1206      3761.9336      17680.178     -3834.7596      25.921148      1.0307264      52862.652    
   1400000   593.79902      18147.443     -675.07382      6096.8373      3719.8443      17535.626     -3825.4564      24.802965      1.0426958      52255.826    
   1420000   595.48441      18308.208     -650.67709      6141.8749      3823.0127      17695.869     -4002.0808      25.771509      1.0387365      52455.004    
   1440000   577.64717      18265.471     -614.38955      6107.1049      3657.0033      17700.97      -3879.7738      23.184416      1.032527       52770.463    
   1460000   574.196        18370.09      -531.87946      6139.1692      3827.2074      17601.663     -3964.8229      26.374354      1.0213157      53349.743    
   1480000   582.82943      18329.778     -718.34628      6118.4759      3806.925       17651.112     -3832.333       30.548189      1.0394515      52418.926    
   1500000   583.23637      18234.911     -629.97133      6115.1518      3661.1208      17653.053     -3855.8916      17.367524      1.0225378      53285.979    
   1520000   584.32012      18344.664     -644.17841      6112.7816      3837.8843      17614.659     -3879.0031      29.521814      1.0334305      52724.328    
   1540000   563.91684      18444.476     -655.52676      6108.7425      3717.1599      17840.708     -3885.8454      43.890044      1.0422244      52279.459    
   1560000   579.24656      18230.94      -630.24496      6106.5299      3791.3958      17554.89      -3894.2677      26.44786       1.0189016      53476.146    
   1580000   572.23319      18160.762     -571.21637      6101.6752      3630.2987      17617.668     -3901.8964      10.769623      1.0430267      52239.247    
   1600000   586.70375      18182.547     -649.43992      6120.603       3731.0157      17554.435     -3860.6639      15.848716      1.0274548      53030.972    
   1620000   577.07097      18237.911     -552.31981      6108.7301      3720.4825      17577.97      -3917.7723      25.072564      1.0271917      53044.558    
   1640000   578.92428      18478.18      -533.66604      6133.0834      3755.6156      17731.981     -3911.8878      30.796074      1.0171081      53570.443    
   1660000   588.46868      18386.014     -579.21433      6119.2307      3736.1351      17632.253     -3848.0655      51.917628      1.0333911      52726.338    
   1680000   575.27907      18306.712     -649.04761      6109.6596      3743.8413      17712.868     -3900.4732      15.495711      1.0272867      53039.654    
   1700000   591.46142      18038.695     -619.97847      6117.1401      3612.3087      17607.994     -3972.0165      20.235939      1.0383042      52476.848    
   1720000   578.22577      18201.509     -599.13981      6117.6818      3697.832       17650.11      -3962.6068      25.604455      1.0282011      52992.484    
   1740000   577.50346      18273.351     -717.14757      6123.8927      3803.8291      17654.843     -3887.4915      21.223572      1.0382479      52479.693    
   1760000   578.19173      18260.006     -684.27399      6109.0964      3719.3749      17801.994     -3986.2105      29.206563      1.0322552      52784.361    
   1780000   574.8323       18325.83      -618.30526      6113.2649      3704.9172      17713.812     -3890.5021      30.852708      1.0308195      52857.873    
   1800000   578.32967      18231.281     -628.64057      6122.2982      3632.6339      17650.498     -3835.8509      16.057033      1.0295723      52921.909    
   1820000   576.30141      18164.267     -594.06157      6126.7673      3766.3799      17586.88      -4027.9459      34.638461      1.0415205      52314.795    
   1840000   580.51544      18183.419     -639.36206      6114.8273      3730.6694      17550.383     -3866.9856      23.921483      1.0291002      52946.184    
   1860000   589.93292      18248.061     -619.75866      6106.9033      3777.021       17594.914     -3904.4142      23.566663      1.0281236      52996.478    
   1880000   577.71067      18408.991     -735.22819      6117.7333      3797.9371      17803.567     -3868.0712      21.043444      1.0452438      52128.44     
   1900000   575.06277      18240.7       -695.97426      6118.8336      3695.6883      17748.915     -3924.7843      26.212593      1.04275        52253.109    
   1920000   575.62728      18383.5       -659.09026      6104.3756      3837.3845      17797.693     -3986.8016      16.908382      1.0403387      52374.22     
   1940000   592.23691      18009.33      -720.4581       6088.3502      3788.104       17498.954     -3952.3803      35.800381      1.0378666      52498.972    
   1960000   571.09174      18474.295     -731.98671      6125.3264      3912.5996      17727.44      -3884.5679      53.60031       1.0322147      52786.429    
   1980000   588.3138       18067.26      -683.58032      6121.2363      3710.6657      17571.112     -3944.1696      20.356721      1.040247       52378.84     
   2000000   584.50061      18392.358     -656.0729       6096.6551      3801.1035      17667.53      -3803.4883      13.800948      1.0400383      52389.35     
   2020000   584.72719      18198.221     -673.51172      6118.9986      3735.2956      17540.518     -3821.7645      24.369354      1.0499063      51896.947    
   2040000   584.54263      18174.116     -711.3342       6117.9353      3669.6071      17674.076     -3873.5761      21.892822      1.0392559      52428.787    
   2060000   597.47946      18118.207     -735.83972      6104.954       3827.032       17535.151     -3896.0848      8.5777977      1.0407185      52355.105    
   2080000   580.48964      18229.957     -695.94802      6125.0928      3772.2129      17568.548     -3850.8047      36.799884      1.0325724      52768.145    
   2100000   572.60141      18249.15      -646.72213      6111.4947      3723.9065      17656.317     -3894.7221      26.070516      1.0379553      52494.487    
   2120000   579.94819      18197.814     -661.41347      6134.6652      3675.4434      17732.289     -3986.4314      30.143589      1.0389806      52442.681    
   2140000   573.0627       18134.593     -687.52318      6111.1755      3636.2931      17659.265     -3884.7757      24.454216      1.0388882      52447.347    
   2160000   578.97681      18271.643     -704.48398      6139.4112      3795.0767      17577.352     -3840.6663      32.779828      1.040262       52378.085    
   2180000   584.79902      18432.71      -697.3408       6149.9237      3945.8879      17628.178     -3911.064       43.29274       1.0350134      52643.696    
   2200000   572.96623      18022.509     -717.10102      6117.1108      3719.6263      17566.047     -3961.0128      25.574317      1.0497584      51904.257    
   2220000   580.64947      18102.982     -686.97469      6134.3409      3627.887       17660.212     -3916.1785      10.780663      1.0385633      52463.756    
   2240000   578.27291      18251.526     -720.18195      6138.7605      3821.6833      17580.256     -3886.7675      47.228546      1.0505237      51866.442    
   2260000   579.51356      18361.712     -699.94795      6113.0297      3783.3561      17804.381     -3957.5779      44.932259      1.0367447      52555.784    
   2280000   575.49253      18406.481     -671.7968       6097.6228      3865.7156      17704.67      -3878.5356      15.558649      1.0261831      53096.691    
   2300000   584.58393      18247.516     -671.5492       6139.5416      3698.1691      17584.963     -3792.8017      14.570995      1.0412522      52328.272    
   2320000   582.83294      18369.729     -562.48858      6100.854       3750.1062      17608.745     -3828.3883      25.403742      1.0396698      52407.919    
   2340000   567.64634      18184.105     -661.72201      6125.5029      3590.9964      17716.933     -3894.8499      34.22321       1.0416775      52306.906    
   2360000   581.56087      18263.98      -667.24422      6145.1796      3744.8851      17679.338     -3938.3238      24.126072      1.0302465      52887.277    
   2380000   575.08529      18250.154     -660.06905      6142.2427      3869.5023      17486.935     -3887.2105      26.441336      1.0371841      52533.516    
   2400000   567.37719      18243.326     -643.58049      6117.5017      3752.7104      17487.775     -3774.9715      32.18786       1.0376769      52508.571    
   2400102   577.64216      18373.518     -644.09288      6102.2896      3825.3145      17598.738     -3832.9925      51.299686      1.0423811      52271.603    
Loop time of 4176.55 on 24 procs for 1200000 steps with 4952 atoms

Performance: 6.206 ns/day, 3.867 hours/ns, 287.318 timesteps/s, 1.423 Matom-step/s
99.5% CPU use with 24 MPI tasks x no OpenMP threads

MPI task timing breakdown:
Section |  min time  |  avg time  |  max time  |%varavg| %total
---------------------------------------------------------------
Pair    | 1774       | 2136.8     | 2526.9     | 374.6 | 51.16
Bond    | 694.46     | 805.55     | 931.45     | 190.4 | 19.29
Kspace  | 501.33     | 1016.9     | 1491.5     | 675.6 | 24.35
Neigh   | 44.136     | 44.176     | 44.213     |   0.3 |  1.06
Comm    | 121.2      | 123.12     | 124.69     |   8.1 |  2.95
Output  | 0.0054787  | 0.0057862  | 0.012375   |   1.8 |  0.00
Modify  | 31.74      | 36.137     | 38.729     |  38.4 |  0.87
Other   |            | 13.88      |            |       |  0.33

Nlocal:        206.333 ave         236 max         170 min
Histogram: 2 0 2 3 1 5 3 4 3 1
Nghost:        4675.46 ave        4728 max        4616 min
Histogram: 4 1 1 0 4 5 1 2 2 4
Neighs:        70475.4 ave       84374 max       53518 min
Histogram: 1 2 1 1 2 6 6 3 1 1

Total # of neighbors = 1691409
Ave neighs/atom = 341.56078
Ave special neighs/atom = 6.4321486
Neighbor list builds = 15045
Dangerous builds = 0
unfix           fNPT
unfix           fMOM
next            a
jump            SELF loop
variable        a loop 26
variable        b equal 600-20*($a-1)
variable        b equal 600-20*(3-1)
fix             fMOM all momentum 100 linear 1 1 1 angular
fix             fNPT all npt temp $b $b $(100.0*dt) iso 1 1 $(100.0*dt)
fix             fNPT all npt temp 560 $b $(100.0*dt) iso 1 1 $(100.0*dt)
fix             fNPT all npt temp 560 560 $(100.0*dt) iso 1 1 $(100.0*dt)
fix             fNPT all npt temp 560 560 25 iso 1 1 $(100.0*dt)
fix             fNPT all npt temp 560 560 25 iso 1 1 25
run             1200000
PPPM initialization ...
  using 12-bit tables for long-range coulomb (../kspace.cpp:342)
  G vector (1/distance) = 0.1544259
  grid = 6 6 6
  stencil order = 5
  estimated absolute RMS force accuracy = 0.27892884
  estimated relative force accuracy = 0.00083998593
  using double precision KISS FFT
  3d grid and FFT values/proc = 392 12
Generated 45 of 45 mixed pair_coeff terms from sixthpower/sixthpower mixing rule
WARNING: Inconsistent image flags (../domain.cpp:815)
Per MPI rank memory allocation (min/avg/max) = 16.13 | 16.13 | 16.14 Mbytes
   Step          Temp          PotEng         E_vdwl         E_coul         E_bond        E_angle        E_dihed        E_impro        Density         Volume    
   2400102   577.64216      18373.443     -644.09288      6109.599       3825.3145      17598.738     -3832.9925      51.299686      1.0423811      52271.603    
   2420000   557.13481      17972.216     -728.90454      6130.4265      3677.8297      17498.299     -3894.2231      23.169584      1.0248101      53167.829    
   2440000   554.49571      17950.5       -688.82332      6119.5244      3727.7052      17428.04      -3945.9557      45.373386      1.0367398      52556.029    
   2460000   561.11445      18013.563     -694.19288      6132.5166      3716.959       17482.699     -3919.6464      33.265063      1.0337913      52705.928    
   2480000   560.08286      17997.324     -723.1803       6112.9671      3665.8866      17575.031     -3918.3814      21.97223       1.0451569      52132.776    
   2500000   566.9132       17905.203     -708.51611      6126.6637      3643.2711      17508.148     -3948.628       18.411378      1.0437371      52203.689    
   2520000   545.29959      17897.142     -697.36371      6149.2112      3592.1869      17506.313     -3953.6256      34.778095      1.0472049      52030.821    
   2540000   559.34423      17831.393     -749.53727      6129.8846      3630.996       17509.429     -3973.1225      16.887345      1.0519415      51796.541    
   2560000   562.6892       17943.409     -786.66555      6136.6646      3700.5357      17474.523     -3891.9981      41.41979       1.0477767      52002.427    
   2580000   564.72232      17951.475     -728.33086      6113.5226      3721.1958      17511.78      -3965.8013      35.270523      1.0490304      51940.275    
   2600000   553.097        17875.141     -717.56601      6136.2163      3648.1643      17373.983     -3849.3757      16.407342      1.0367059      52557.748    
   2620000   545.25737      17921.838     -666.45334      6121.2124      3594.3182      17542.286     -3966.4086      31.451742      1.0502379      51880.558    
   2640000   558.02159      17926.057     -806.2666       6130.8168      3633.1662      17572.838     -3901.9693      31.840102      1.050108       51886.978    
   2660000   566.75723      18092.52      -726.13163      6126.5256      3633.788       17583.688     -3808.2367      16.412191      1.0450658      52137.319    
   2680000   564.97534      17900.628     -729.37057      6121.486       3612.4011      17467.681     -3868.788       29.077982      1.0468776      52047.087    
   2700000   571.52573      17838.661     -667.57726      6130.0284      3522.3218      17462.678     -3893.4802      19.190944      1.0402095      52380.727    
   2720000   552.82531      17914.833     -659.59999      6133.1751      3618.4169      17429.344     -3892.3854      18.34843       1.0456206      52109.657    
   2740000   555.33436      17888.217     -684.2581       6126.6937      3594.5399      17429.795     -3902.1023      55.921441      1.0485562      51963.768    
   2760000   573.8297       18069.337     -680.20486      6137.1198      3696.1606      17562.668     -3937.6146      23.780235      1.0322101      52786.667    
   2780000   566.60346      17957.397     -712.60733      6122.0765      3587.1833      17618.427     -3949.0862      27.501064      1.0421751      52281.931    
   2800000   554.79609      18068.424     -684.04778      6138.2803      3622.2237      17540.234     -3840.1874      27.354683      1.0395786      52412.516    
   2820000   557.62251      18101.21      -688.9459       6105.2502      3707.3891      17636.962     -3958.1103      32.58764       1.027449       53031.276    
   2840000   553.98474      17845.333     -600.95094      6108.8853      3555.226       17425.578     -3943.1329      33.773131      1.0319801      52798.428    
   2860000   554.05529      17993.114     -566.82206      6126.4207      3668.4657      17459.529     -3980.0913      18.51842       1.0341608      52687.096    
   2880000   558.4642       17962.147     -662.86743      6110.2017      3647.2301      17484.033     -3909.8096      26.012652      1.0369661      52544.561    
   2900000   553.62777      17874.417     -631.33304      6103.669       3680.8523      17348.211     -3913.9478      21.129171      1.0351956      52634.429    
   2920000   555.43516      18003.138     -666.6036       6126.4926      3683.1214      17419.564     -3836.0939      8.9783271      1.0453543      52122.931    
   2940000   573.81182      18084.932     -726.83312      6098.2516      3800.1906      17551.108     -3923.0112      20.000675      1.0344029      52674.762    
[...]
  22100000   238.44324      12879.236     -1333.4971      6157.0075      1743.048       15332.584     -4187.8811     -16.919984      1.1336351      48063.905    
  22120000   243.27507      12824.214     -1297.3057      6132.3866      1752.4157      15262.3       -4206.1034     -3.6406447      1.1275471      48323.418    
  22140000   240.14141      12869.112     -1342.3745      6140.3934      1760.5205      15287.931     -4156.4567     -3.9489345      1.1287572      48271.61     
  22160000   241.51311      12708.514     -1344.2665      6163.3595      1685.9559      15223.624     -4190.0632     -15.03313       1.1363512      47949.024    
  22180000   238.65025      12812.95      -1340.9771      6152.2911      1755.8682      15269.192     -4197.9608     -9.8533489      1.1399322      47798.393    
  22200000   240.08964      12827.629     -1331.1873      6152.1382      1754.7926      15268.308     -4195.0598     -5.7997767      1.1340504      48046.302    
  22220000   240.56369      12804.985     -1361.6352      6147.3767      1768.7311      15286.025     -4204.9341     -15.380558      1.132026       48132.225    
  22240000   237.33094      12827.264     -1338.7566      6143.2099      1740.989       15326.759     -4220.2764     -9.1281377      1.1331014      48086.542    
  22260000   237.69967      12785.534     -1293.8858      6165.0072      1686.4954      15230.413     -4177.8171     -8.9546379      1.1316863      48146.672    
  22280000   243.56499      12754.148     -1333.0003      6155.5929      1694.9212      15293.223     -4234.3946     -7.1407655      1.1352446      47995.764    
  22300000   238.03686      12891.495     -1328.826       6131.5643      1788.8375      15332.261     -4200.1208     -17.548022      1.1324306      48115.026    
  22320000   237.03792      12822.893     -1305.1825      6144.4646      1724.1347      15325.342     -4238.2482     -11.833502      1.1346247      48021.982    
  22340000   236.66654      12861.162     -1322.9471      6130.2703      1779.0509      15294.272     -4197.3614     -7.3547941      1.1361438      47957.776    
  22360000   239.97031      12729.708     -1326.2695      6143.5958      1722.6034      15202.026     -4187.1117     -9.0524342      1.1331924      48082.684    
  22380000   242.90288      12810.186     -1335.4192      6154.2798      1724.6481      15323.981     -4228.1134     -13.724819      1.1288723      48266.691    
  22400000   239.71224      12829.822     -1294.6285      6151.6611      1765.9472      15257.33      -4224.0879     -9.7323285      1.1315411      48152.85     
  22420000   240.8983       12833.509     -1336.9714      6158.0749      1776.0648      15291.132     -4229.6777     -9.8652366      1.1299265      48221.659    
  22440000   238.44052      12842.392     -1301.6316      6151.0794      1763.9884      15288.424     -4230.6074     -13.397613      1.1293723      48245.322    
  22460000   242.3419       12855.643     -1349.478       6150.7182      1778.7596      15303.206     -4199.9288     -11.25331       1.1312891      48163.578    
  22480000   235.29809      12805.454     -1303.9002      6148.85        1697.5816      15266.447     -4169.3342     -17.747024      1.1300593      48215.993    
  22500000   238.55796      12815.065     -1315.8288      6129.4112      1722.7707      15291.191     -4185.4543     -12.444881      1.1312903      48163.527    
  22520000   246.33043      12888.746     -1343.5861      6154.2141      1741.0154      15326.9       -4155.5455     -19.273795      1.1383073      47866.625    
  22540000   239.23987      12824.912     -1318.3065      6126.3678      1727.1183      15333.369     -4212.4377     -15.115198      1.1396526      47810.121    
  22560000   236.61543      12906.832     -1292.9059      6158.8733      1770.7373      15339.263     -4236.4431     -17.435197      1.1288722      48266.692    
  22580000   236.22714      12828.216     -1328.2165      6155.1649      1753.345       15297.554     -4224.7942     -8.802314       1.1327898      48099.772    
  22600000   236.96349      12832.774     -1289.0633      6127.0203      1776.0804      15224.703     -4180.3103     -10.467861      1.1287968      48269.917    
  22620000   237.71904      12771.328     -1321.0795      6155.1111      1772.9813      15210.925     -4216.3927     -15.431434      1.1327401      48101.881    
  22640000   241.52555      12814.706     -1380.1045      6171.5084      1762.8985      15268.567     -4179.3188     -13.73556       1.1343269      48034.59     
  22660000   240.38021      12822.947     -1326.0583      6138.7527      1739.1992      15298.73      -4198.1431     -15.048055      1.1313671      48160.256    
  22680000   236.94662      12804.106     -1320.2239      6155.6317      1725.9756      15245.943     -4171.053      -16.696423      1.1384204      47861.87     
  22700000   239.51522      12774.365     -1295.5944      6148.6718      1702.5782      15241.612     -4189.0781     -17.744441      1.131564       48151.875    
  22720000   235.67659      12917.76      -1341.7449      6169.7484      1735.5326      15394.729     -4206.9847     -17.375739      1.1324649      48113.572    
  22740000   237.62207      12794.868     -1309.0336      6170.7792      1723.354       15219.296     -4181.323      -13.009366      1.1390271      47836.378    
  22760000   238.09035      12828.425     -1334.3112      6159.575       1763.4173      15262.277     -4195.0947     -12.569018      1.1332649      48079.604    
  22780000   240.61153      12779.675     -1292.987       6148.1875      1746.7597      15206.954     -4187.3753     -25.892455      1.1330604      48088.281    
  22800000   242.14959      12861.444     -1321.9918      6153.1428      1730.9827      15352.456     -4221.5105     -15.746994      1.1327457      48101.644    
  22800102   239.40355      12892.811     -1331.9278      6152.5253      1738.1322      15366.671     -4213.6295     -3.2231203      1.1349179      48009.576    
Loop time of 4127.49 on 24 procs for 1200000 steps with 4952 atoms

Performance: 6.280 ns/day, 3.822 hours/ns, 290.734 timesteps/s, 1.440 Matom-step/s
99.5% CPU use with 24 MPI tasks x no OpenMP threads

MPI task timing breakdown:
Section |  min time  |  avg time  |  max time  |%varavg| %total
---------------------------------------------------------------
Pair    | 2033.8     | 2314.3     | 2544.2     | 334.3 | 56.07
Bond    | 717.33     | 798.95     | 903.48     | 189.3 | 19.36
Kspace  | 548.8      | 818.19     | 1179.8     | 673.2 | 19.82
Neigh   | 18.412     | 18.43      | 18.448     |   0.3 |  0.45
Comm    | 125.31     | 127.35     | 128.96     |   8.5 |  3.09
Output  | 0.0045876  | 0.0049784  | 0.013321   |   2.5 |  0.00
Modify  | 31.786     | 36.393     | 39.308     |  36.6 |  0.88
Other   |            | 13.83      |            |       |  0.34

Nlocal:        206.333 ave         228 max         188 min
Histogram: 1 2 3 4 5 2 1 4 1 1
Nghost:        5011.58 ave        5047 max        4965 min
Histogram: 1 0 0 5 2 5 5 3 1 2
Neighs:        77109.8 ave       85471 max       65943 min
Histogram: 2 0 3 2 3 2 3 3 2 4

Total # of neighbors = 1850634
Ave neighs/atom = 373.71446
Ave special neighs/atom = 6.4321486
Neighbor list builds = 6281
Dangerous builds = 0
unfix           fNPT
unfix           fMOM
next            a
jump            SELF loop
variable        a loop 26
variable        b equal 600-20*($a-1)
variable        b equal 600-20*(20-1)
fix             fMOM all momentum 100 linear 1 1 1 angular
fix             fNPT all npt temp $b $b $(100.0*dt) iso 1 1 $(100.0*dt)
fix             fNPT all npt temp 220 $b $(100.0*dt) iso 1 1 $(100.0*dt)
fix             fNPT all npt temp 220 220 $(100.0*dt) iso 1 1 $(100.0*dt)
fix             fNPT all npt temp 220 220 25 iso 1 1 $(100.0*dt)
fix             fNPT all npt temp 220 220 25 iso 1 1 25
run             1200000
PPPM initialization ...
  using 12-bit tables for long-range coulomb (../kspace.cpp:342)
  G vector (1/distance) = 0.15710836
  grid = 6 6 6
  stencil order = 5
  estimated absolute RMS force accuracy = 0.26771275
  estimated relative force accuracy = 0.000806209
  using double precision KISS FFT
  3d grid and FFT values/proc = 392 12
Generated 45 of 45 mixed pair_coeff terms from sixthpower/sixthpower mixing rule
WARNING: Inconsistent image flags (../domain.cpp:815)
Per MPI rank memory allocation (min/avg/max) = 16.13 | 16.14 | 16.14 Mbytes
   Step          Temp          PotEng         E_vdwl         E_coul         E_bond        E_angle        E_dihed        E_impro        Density         Volume    
  22800102   239.40355      12892.838     -1331.9278      6156.6711      1738.1322      15366.671     -4213.6295     -3.2231203      1.1349179      48009.576    
  22820000   220.17055      12567.373     -1347.9575      6158.0229      1613.6196      15222.074     -4244.7085     -14.68248       1.1340751      48045.259    
  22840000   219.88344      12569.305     -1368.5007      6160.1751      1616.1852      15251.535     -4248.3166     -22.667333      1.1370768      47918.425    
  22860000   214.11471      12526.171     -1343.7671      6172.4249      1639.491       15090.822     -4201.1917     -11.790505      1.1380108      47879.096    
  22880000   218.53904      12546.394     -1358.369       6145.6366      1669.6349      15137.716     -4214.3591     -13.932623      1.1357673      47973.674    
  22900000   217.87733      12485.092     -1351.2781      6156.4191      1616.1091      15134.156     -4235.4967     -14.640633      1.1436123      47644.583    
  22920000   221.49744      12490.987     -1322.2364      6154.0312      1600.28        15130.381     -4233.0968     -18.181438      1.1393675      47822.087    
  22940000   220.61404      12477.043     -1361.0666      6144.1538      1625.2222      15170.134     -4268.4264     -13.089597      1.138465       47859.993    
  22960000   218.08849      12497.991     -1357.6213      6154.6501      1623.5579      15100.38      -4195.2208     -8.8719192      1.1370053      47921.437    
  22980000   219.34758      12541.212     -1386.483       6153.2624      1680.7128      15156.328     -4227.1668     -15.714674      1.1384226      47861.779    
  23000000   221.88013      12548.363     -1347.976       6169.4086      1654.07        15126.866     -4219.8197     -14.135029      1.1295692      48236.913    
  23020000   221.21704      12524.633     -1332.9264      6153.0407      1657.5221      15137.774     -4255.8376     -14.534095      1.1395535      47814.28     
  23040000   221.78547      12558.173     -1385.2017      6160.4048      1679.9076      15157.677     -4214.5245     -19.550977      1.1421042      47707.493    
  23060000   220.37411      12564.344     -1364.9697      6151.5015      1622.3287      15224.169     -4236.5353     -13.133561      1.1353348      47991.95     
  23080000   222.62147      12537.282     -1362.4674      6170.8         1629.6895      15132.474     -4196.8285     -17.557688      1.1372482      47911.204    
  23100000   218.89193      12542.099     -1347.6499      6162.6788      1605.5076      15166.9       -4210.7214     -14.728269      1.1400992      47791.394    
  23120000   221.811        12472.315     -1323.3075      6159.2522      1551.7887      15151.671     -4236.6531     -10.107357      1.1365766      47939.512    
  23140000   222.82035      12535.728     -1383.1973      6163.0746      1615.0717      15223.634     -4251.233      -11.730787      1.1342982      48035.808    
  23160000   223.98357      12551.629     -1328.0924      6139.8928      1574.5309      15197.711     -4198.1767     -15.241101      1.1364741      47943.838    
  23180000   220.21277      12535.656     -1315.883       6152.5598      1642.7898      15094.867     -4208.002      -12.316546      1.135602       47980.656    
  23200000   219.63245      12516.436     -1306.6869      6150.0744      1629.2767      15118.568     -4239.0644     -15.771038      1.1432379      47660.186    
  23220000   221.02094      12523.3       -1337.1169      6148.357       1665.6231      15106.005     -4219.7902     -19.675958      1.1374942      47900.841    
  23240000   220.94704      12524.329     -1327.3693      6145.2346      1632.5833      15150.413     -4235.6884     -20.128823      1.1353981      47989.274    
  23260000   218.34145      12593.281     -1300.8041      6152.2491      1610.3798      15189.357     -4226.4094     -12.544995      1.1345112      48026.789    
  23280000   220.61529      12485.517     -1336.8621      6153.7297      1586.8633      15143.306     -4222.0799     -20.190235      1.135526       47983.867    
  23300000   218.12609      12449.552     -1351.7         6157.3072      1570.1168      15125.371     -4218.9092     -14.008769      1.1411965      47745.439    
  23320000   220.96155      12533.699     -1369.2063      6177.4879      1679.7735      15135.455     -4254.7826     -15.813174      1.1352885      47993.906    
  23340000   220.90406      12534.88      -1319.3324      6164.723       1604.0099      15108.438     -4195.9458     -7.5215513      1.1376917      47892.525    
  23360000   220.44328      12553.254     -1344.8446      6149.4405      1645.7551      15158.856     -4222.536      -14.5668        1.1384565      47860.353    
  23380000   217.7602       12536.355     -1364.4378      6155.6355      1646.527       15107.965     -4174.0318     -15.617864      1.1375863      47896.965    
  23400000   214.63618      12539.423     -1353.021       6160.6431      1624.1393      15181.33      -4244.1829     -9.9788408      1.1369201      47925.032    
  23420000   221.95162      12544.318     -1333.0827      6140.2983      1623.5813      15138.595     -4201.2631     -3.6012168      1.1387653      47847.375    
  23440000   222.00405      12570.333     -1366.6302      6159.6609      1647.2688      15180.858     -4215.4429     -16.287238      1.1360339      47962.416    
  23460000   224.58635      12460.699     -1345.7792      6147.6234      1634.554       15086.278     -4232.4782     -9.1770155      1.1394763      47817.519    
  23480000   220.49336      12497.016     -1363.554       6152.4865      1590.5987      15167.83      -4223.4894     -7.3191749      1.1307077      48188.341    
  23500000   219.18334      12526.035     -1363.3844      6146.086       1596.2286      15188.597     -4208.2491     -13.576969      1.1427368      47681.083    
  23520000   215.9284       12462.63      -1341.3305      6155.9228      1595.101       15118.81      -4230.6538     -15.326197      1.1420065      47711.577    
  23540000   220.01364      12521.153     -1401.6761      6158.2698      1612.3734      15184.026     -4199.5991     -11.572827      1.1396045      47812.139    
  23560000   219.1303       12468.442     -1357.6373      6145.2342      1605.2098      15166.549     -4256.0036     -14.544715      1.1359894      47964.292    
  23580000   218.82973      12490.01      -1377.8449      6154.7543      1620.0297      15127.653     -4208.6527     -6.9617097      1.139812       47803.435    
  23600000   218.01892      12513.909     -1347.4094      6162.4787      1580.3662      15165.004     -4213.8271     -13.510102      1.1357349      47975.042    
  23620000   220.3357       12575.436     -1340.675       6154.0838      1656.7309      15177.143     -4236.3952     -15.261606      1.134842       48012.79     
  23640000   219.87974      12551.409     -1356.5558      6167.9726      1650.4171      15134.994     -4208.8333     -17.950026      1.136367       47948.358    
  23660000   213.65272      12525.311     -1331.8558      6158.5915      1633.1366      15124.337     -4219.9962     -19.508216      1.1398624      47801.323    
  23680000   215.53354      12538.135     -1337.7781      6156.5387      1587.6474      15176.077     -4204.1478     -20.267934      1.1294851      48240.503    
  23700000   215.02101      12496.239     -1366.9442      6151.3416      1620.7518      15128.632     -4205.2357     -12.959112      1.1380348      47878.086    
  23720000   218.00939      12482.203     -1371.2022      6143.4442      1636.7643      15180.353     -4270.7116     -16.933879      1.1410094      47753.269    
  23740000   217.78059      12465.39      -1422.2988      6148.9989      1639.7176      15170.843     -4237.4479     -15.488326      1.1337701      48058.18     
  23760000   215.44626      12498.735     -1348.4857      6149.2938      1657.3677      15106.573     -4234.3468     -11.313227      1.1374899      47901.023    
  23780000   215.97768      12543.245     -1336.9225      6146.3685      1613.3293      15174.193     -4220.9454     -13.075234      1.1317412      48144.336    
  23800000   217.19686      12577.564     -1317.6311      6174.5254      1663.2146      15120.03      -4224.7164     -18.594534      1.1326634      48105.137    
  23820000   219.96055      12529.851     -1348.0524      6152.5561      1623.8311      15138.541     -4203.7521     -12.743878      1.1332121      48081.847    
  23840000   219.01142      12524.189     -1392.5403      6168.7242      1600.1029      15170.235     -4190.3757     -11.828499      1.1343085      48035.372    
  23860000   219.17979      12544.092     -1333.6317      6161.253       1641.9155      15137.653     -4220.3173     -22.290115      1.1365929      47938.827    
  23880000   220.77593      12547.106     -1336.3747      6162.876       1598.0827      15179.621     -4220.3119     -17.292538      1.1307092      48188.278    
  23900000   223.19503      12558.709     -1372.4609      6146.442       1597.2764      15222.615     -4196.0701     -18.741351      1.1343163      48035.042    
  23920000   218.86585      12506.507     -1346.405       6166.6418      1601.7237      15167.755     -4244.1909     -18.484154      1.1352383      47996.03     
  23940000   216.39087      12525.857     -1394.1476      6143.5985      1654.052       15171.968     -4214.0473     -15.990724      1.1390451      47835.621    
  23960000   218.58666      12551.823     -1387.8186      6163.8975      1631.6372      15182.168     -4200.6441     -17.60477       1.1394675      47817.886    
  23980000   222.73688      12586.099     -1386.3113      6168.8712      1636.0753      15203.644     -4203.6601     -13.628858      1.1357986      47972.351    
  24000000   223.54959      12549.51      -1401.3269      6161.4446      1656.6526      15190.581     -4230.1388     -8.387816       1.1416385      47726.954    
  24000102   219.89811      12566.509     -1383.7845      6155.2343      1627.8647      15174.396     -4171.2306     -15.984386      1.138767       47847.302    
Loop time of 4127.28 on 24 procs for 1200000 steps with 4952 atoms

Performance: 6.280 ns/day, 3.822 hours/ns, 290.749 timesteps/s, 1.440 Matom-step/s
99.5% CPU use with 24 MPI tasks x no OpenMP threads

MPI task timing breakdown:
Section |  min time  |  avg time  |  max time  |%varavg| %total
---------------------------------------------------------------
Pair    | 2034.6     | 2312.5     | 2525.2     | 336.0 | 56.03
Bond    | 719.43     | 798.48     | 899.05     | 185.2 | 19.35
Kspace  | 529.51     | 821.51     | 1178.3     | 673.4 | 19.90
Neigh   | 17.011     | 17.026     | 17.051     |   0.3 |  0.41
Comm    | 125.32     | 127.4      | 129.06     |   8.7 |  3.09
Output  | 0.0028881  | 0.0034216  | 0.015057   |   4.1 |  0.00
Modify  | 31.628     | 36.351     | 39.168     |  36.3 |  0.88
Other   |            | 13.97      |            |       |  0.34

Nlocal:        206.333 ave         227 max         192 min
Histogram: 4 3 3 2 3 2 4 1 1 1
Nghost:        5011.83 ave        5066 max        4941 min
Histogram: 1 0 3 3 5 1 3 2 4 2
Neighs:        77430.8 ave       85590 max       68013 min
Histogram: 2 3 1 3 2 3 1 3 1 5

Total # of neighbors = 1858339
Ave neighs/atom = 375.2704
Ave special neighs/atom = 6.4321486
Neighbor list builds = 5789
Dangerous builds = 0
