LAMMPS (22 Dec 2022)
WARNING: Using I/O redirection is unreliable with parallel runs. Better to use the -in switch to read input files. (../lammps.cpp:531)
# PREREQUISITES:
#
#     You must use moltemplate.sh to create 3 files:
#        system.data  system.in.init  system.in.settings
#     (Follow the instructions in README_setup.sh,
#      or run the file as a script using ./README_setup.sh)

# ------------------------------- Initialization Section --------------------

units real
atom_style full
pair_style lj/class2/coul/cut 10.0
bond_style class2
angle_style class2
dihedral_style class2
improper_style class2


# ------------------------------- Atom Definition Section -------------------

read_data       "pack_mol.data" extra/bond/per/atom 1 extra/angle/per/atom 12 extra/dihedral/per/atom 12 extra/improper/per/atom 12 extra/special/per/atom 12
Reading data file ...
  orthogonal box = (0 0 0) to (46.052579 46.052579 46.052579)
  1 by 2 by 3 MPI processor grid
  reading atoms ...
  4984 atoms
  scanning bonds ...
  5 = max bonds/atom
  scanning angles ...
  18 = max angles/atom
  scanning dihedrals ...
  27 = max dihedrals/atom
  scanning impropers ...
  16 = max impropers/atom
  reading bonds ...
  4977 bonds
  reading angles ...
  9656 angles
  reading dihedrals ...
  12801 dihedrals
  reading impropers ...
  6248 impropers
Finding 1-2 1-3 1-4 neighbors ...
  special bond factors lj:    0        0        0       
  special bond factors coul:  0        0        0       
     4 = max # of 1-2 neighbors
     9 = max # of 1-3 neighbors
    16 = max # of 1-4 neighbors
    32 = max # of special neighbors
  special bonds CPU = 0.001 seconds
  read_data CPU = 0.094 seconds

include calc.pram

# Masses

mass	1	12.01115	#	c
mass	2	12.01115	#	c1
mass	3	12.01115	#	c3h
mass	4	1.00797	#	h
mass	5	1.00797	#	hc
mass	6	15.99940	#	o3e
mass	7	15.99940	#	oc
mass	8	15.99940	#	oh

# Potentials

pair_coeff	1	1	0.05400	4.01000	#	c,c
pair_coeff	2	2	0.05400	4.01000	#	c1,c1
pair_coeff	3	3	0.05400	4.01000	#	c3h,c3h
pair_coeff	4	4	0.02000	2.99500	#	h,h
pair_coeff	5	5	0.02000	2.99500	#	hc,hc
pair_coeff	6	6	0.24000	3.53500	#	o3e,o3e
pair_coeff	7	7	0.24000	3.53500	#	oc,oc
pair_coeff	8	8	0.24000	3.53500	#	oh,oh

# Bond Coeffs

bond_coeff	1	1.53000	299.67000	-501.77000	679.81000	#	c,c
bond_coeff	2	1.53000	299.67000	-501.77000	679.81000	#	c,c1
bond_coeff	3	1.53000	299.67000	-501.77000	679.81000	#	c,c3h
bond_coeff	4	1.10100	345.00000	-691.89000	844.60000	#	c,hc
bond_coeff	5	1.42000	400.39540	-835.19510	1313.01420	#	c,o3e
bond_coeff	6	1.42000	400.39540	-835.19510	1313.01420	#	c,oc
bond_coeff	7	1.42000	400.39540	-835.19510	1313.01420	#	c,oh
bond_coeff	8	1.10100	345.00000	-691.89000	844.60000	#	c1,hc
bond_coeff	9	1.42000	400.39540	-835.19510	1313.01420	#	c1,oc
bond_coeff	10	1.10100	345.00000	-691.89000	844.60000	#	c3h,hc
bond_coeff	11	1.42000	400.39540	-835.19510	1313.01420	#	c3h,o3e
bond_coeff	12	0.96000	493.84800	0.00000	0.00000	#	h,oh

# Angle Coeffs

angle_coeff	1	112.67000	39.51600	-7.44300	-9.55830	#	c,c,c
angle_coeff	2	112.67000	39.51600	-7.44300	-9.55830	#	c,c,c1
angle_coeff	3	110.77000	41.45300	-10.60400	5.12900	#	c,c,hc
angle_coeff	4	111.27000	54.53810	-8.36420	-13.08380	#	c,c,oc
angle_coeff	5	112.67000	39.51600	-7.44300	-9.55830	#	c,c1,c
angle_coeff	6	110.77000	41.45300	-10.60400	5.12900	#	c,c1,hc
angle_coeff	7	111.27000	54.53810	-8.36420	-13.08380	#	c,c1,oc
angle_coeff	8	112.67000	39.51600	-7.44300	-9.55830	#	c,c3h,c
angle_coeff	9	110.77000	41.45300	-10.60400	5.12900	#	c,c3h,hc
angle_coeff	10	111.27000	54.53810	-8.36420	-13.08380	#	c,c3h,o3e
angle_coeff	11	104.50000	35.74540	-10.00670	-6.27290	#	c,o3e,c3h
angle_coeff	12	104.50000	35.74540	-10.00670	-6.27290	#	c,oc,c
angle_coeff	13	104.50000	35.74540	-10.00670	-6.27290	#	c,oc,c1
angle_coeff	14	109.00000	58.50000	0.00000	0.00000	#	c,oh,h
angle_coeff	15	110.77000	41.45300	-10.60400	5.12900	#	c1,c,hc
angle_coeff	16	111.27000	54.53810	-8.36420	-13.08380	#	c1,c,oc
angle_coeff	17	111.27000	54.53810	-8.36420	-13.08380	#	c1,c,oh
angle_coeff	18	110.77000	41.45300	-10.60400	5.12900	#	c3h,c,hc
angle_coeff	19	111.27000	54.53810	-8.36420	-13.08380	#	c3h,c,o3e
angle_coeff	20	111.27000	54.53810	-8.36420	-13.08380	#	c3h,c,oc
angle_coeff	21	107.66000	39.64100	-12.92100	-2.43180	#	hc,c,hc
angle_coeff	22	108.72800	58.54460	-10.80880	-12.40060	#	hc,c,o3e
angle_coeff	23	108.72800	58.54460	-10.80880	-12.40060	#	hc,c,oc
angle_coeff	24	108.72800	58.54460	-10.80880	-12.40060	#	hc,c,oh
angle_coeff	25	108.72800	58.54460	-10.80880	-12.40060	#	hc,c1,oc
angle_coeff	26	108.72800	58.54460	-10.80880	-12.40060	#	hc,c3h,o3e

# BondBond Coeffs

angle_coeff	1	bb	0.00000	1.53000	1.53000	#	c,c,c
angle_coeff	2	bb	0.00000	1.53000	1.53000	#	c,c,c1
angle_coeff	3	bb	3.38720	1.53000	1.10100	#	c,c,hc
angle_coeff	4	bb	11.43180	1.53000	1.42000	#	c,c,oc
angle_coeff	5	bb	0.00000	1.53000	1.53000	#	c,c1,c
angle_coeff	6	bb	3.38720	1.53000	1.10100	#	c,c1,hc
angle_coeff	7	bb	11.43180	1.53000	1.42000	#	c,c1,oc
angle_coeff	8	bb	0.00000	1.53000	1.53000	#	c,c3h,c
angle_coeff	9	bb	3.38720	1.53000	1.10100	#	c,c3h,hc
angle_coeff	10	bb	11.43180	1.53000	1.42000	#	c,c3h,o3e
angle_coeff	11	bb	-7.11310	1.42000	1.42000	#	c,o3e,c3h
angle_coeff	12	bb	-7.11310	1.42000	1.42000	#	c,oc,c
angle_coeff	13	bb	-7.11310	1.42000	1.42000	#	c,oc,c1
angle_coeff	14	bb	0.00000	1.42000	0.96000	#	c,oh,h
angle_coeff	15	bb	3.38720	1.53000	1.10100	#	c1,c,hc
angle_coeff	16	bb	11.43180	1.53000	1.42000	#	c1,c,oc
angle_coeff	17	bb	11.43180	1.53000	1.42000	#	c1,c,oh
angle_coeff	18	bb	3.38720	1.53000	1.10100	#	c3h,c,hc
angle_coeff	19	bb	11.43180	1.53000	1.42000	#	c3h,c,o3e
angle_coeff	20	bb	11.43180	1.53000	1.42000	#	c3h,c,oc
angle_coeff	21	bb	5.33160	1.10100	1.10100	#	hc,c,hc
angle_coeff	22	bb	23.19790	1.10100	1.42000	#	hc,c,o3e
angle_coeff	23	bb	23.19790	1.10100	1.42000	#	hc,c,oc
angle_coeff	24	bb	23.19790	1.10100	1.42000	#	hc,c,oh
angle_coeff	25	bb	23.19790	1.10100	1.42000	#	hc,c1,oc
angle_coeff	26	bb	23.19790	1.10100	1.42000	#	hc,c3h,o3e

# BondAngle Coeffs

angle_coeff	1	ba	8.01600	8.01600	1.53000	1.53000	#	c,c,c
angle_coeff	2	ba	8.01600	8.01600	1.53000	1.53000	#	c,c,c1
angle_coeff	3	ba	20.75400	11.42100	1.53000	1.10100	#	c,c,hc
angle_coeff	4	ba	2.68680	20.40330	1.53000	1.42000	#	c,c,oc
angle_coeff	5	ba	8.01600	8.01600	1.53000	1.53000	#	c,c1,c
angle_coeff	6	ba	20.75400	11.42100	1.53000	1.10100	#	c,c1,hc
angle_coeff	7	ba	2.68680	20.40330	1.53000	1.42000	#	c,c1,oc
angle_coeff	8	ba	8.01600	8.01600	1.53000	1.53000	#	c,c3h,c
angle_coeff	9	ba	20.75400	11.42100	1.53000	1.10100	#	c,c3h,hc
angle_coeff	10	ba	2.68680	20.40330	1.53000	1.42000	#	c,c3h,o3e
angle_coeff	11	ba	-2.81120	-2.81120	1.42000	1.42000	#	c,o3e,c3h
angle_coeff	12	ba	-2.81120	-2.81120	1.42000	1.42000	#	c,oc,c
angle_coeff	13	ba	-2.81120	-2.81120	1.42000	1.42000	#	c,oc,c1
angle_coeff	14	ba	0.00000	0.00000	1.42000	0.96000	#	c,oh,h
angle_coeff	15	ba	11.42100	20.75400	1.53000	1.10100	#	c1,c,hc
angle_coeff	16	ba	2.68680	20.40330	1.53000	1.42000	#	c1,c,oc
angle_coeff	17	ba	2.68680	20.40330	1.53000	1.42000	#	c1,c,oh
angle_coeff	18	ba	11.42100	20.75400	1.53000	1.10100	#	c3h,c,hc
angle_coeff	19	ba	2.68680	20.40330	1.53000	1.42000	#	c3h,c,o3e
angle_coeff	20	ba	20.40330	2.68680	1.53000	1.42000	#	c3h,c,oc
angle_coeff	21	ba	18.10300	18.10300	1.10100	1.10100	#	hc,c,hc
angle_coeff	22	ba	4.61890	55.32700	1.10100	1.42000	#	hc,c,o3e
angle_coeff	23	ba	4.61890	55.32700	1.10100	1.42000	#	hc,c,oc
angle_coeff	24	ba	4.61890	55.32700	1.10100	1.42000	#	hc,c,oh
angle_coeff	25	ba	4.61890	55.32700	1.10100	1.42000	#	hc,c1,oc
angle_coeff	26	ba	4.61890	55.32700	1.10100	1.42000	#	hc,c3h,o3e

# Dihedral Coeffs

dihedral_coeff	1	0.00000	0.00000	0.05140	0.00000	-0.14300	0.00000	#	c,c,c,c
dihedral_coeff	2	0.00000	0.00000	0.05140	0.00000	-0.14300	0.00000	#	c,c,c,c1
dihedral_coeff	3	0.00000	0.00000	0.03160	0.00000	-0.16810	0.00000	#	c,c,c,hc
dihedral_coeff	4	0.71370	0.00000	0.26600	0.00000	-0.25450	0.00000	#	c,c,c,oc
dihedral_coeff	5	0.00000	0.00000	0.05140	0.00000	-0.14300	0.00000	#	c,c,c1,c
dihedral_coeff	6	0.00000	0.00000	0.03160	0.00000	-0.16810	0.00000	#	c,c,c1,hc
dihedral_coeff	7	-0.52030	0.00000	-0.30280	0.00000	-0.34500	0.00000	#	c,c,oc,c
dihedral_coeff	8	-0.52030	0.00000	-0.30280	0.00000	-0.34500	0.00000	#	c,c,oc,c1
dihedral_coeff	9	0.00000	0.00000	0.03160	0.00000	-0.16810	0.00000	#	c,c1,c,hc
dihedral_coeff	10	0.71370	0.00000	0.26600	0.00000	-0.25450	0.00000	#	c,c1,c,oc
dihedral_coeff	11	0.71370	0.00000	0.26600	0.00000	-0.25450	0.00000	#	c,c1,c,oh
dihedral_coeff	12	-0.52030	0.00000	-0.30280	0.00000	-0.34500	0.00000	#	c,c1,oc,c
dihedral_coeff	13	0.00000	0.00000	0.03160	0.00000	-0.16810	0.00000	#	c,c3h,c,hc
dihedral_coeff	14	0.71370	0.00000	0.26600	0.00000	-0.25450	0.00000	#	c,c3h,c,o3e
dihedral_coeff	15	0.71370	0.00000	0.26600	0.00000	-0.25450	0.00000	#	c,c3h,c,oc
dihedral_coeff	16	-0.52030	0.00000	-0.30280	0.00000	-0.34500	0.00000	#	c,c3h,o3e,c
dihedral_coeff	17	0.53020	0.00000	0.00000	0.00000	-0.39660	0.00000	#	c,o3e,c3h,hc
dihedral_coeff	18	-0.52030	0.00000	-0.30280	0.00000	-0.34500	0.00000	#	c,oc,c,c1
dihedral_coeff	19	-0.52030	0.00000	-0.30280	0.00000	-0.34500	0.00000	#	c,oc,c,c3h
dihedral_coeff	20	0.53020	0.00000	0.00000	0.00000	-0.39660	0.00000	#	c,oc,c,hc
dihedral_coeff	21	0.53020	0.00000	0.00000	0.00000	-0.39660	0.00000	#	c,oc,c1,hc
dihedral_coeff	22	0.00000	0.00000	0.03160	0.00000	-0.16810	0.00000	#	c1,c,c,hc
dihedral_coeff	23	0.00000	0.00000	0.00000	0.00000	0.13000	180.00000	#	c1,c,oh,h
dihedral_coeff	24	0.53020	0.00000	0.00000	0.00000	-0.39660	0.00000	#	c1,oc,c,hc
dihedral_coeff	25	0.53020	0.00000	0.00000	0.00000	-0.39660	0.00000	#	c3h,o3e,c,hc
dihedral_coeff	26	0.00000	0.00000	0.00000	0.00000	0.13000	180.00000	#	h,oh,c,hc
dihedral_coeff	27	-0.14320	0.00000	0.06170	0.00000	-0.10830	0.00000	#	hc,c,c,hc
dihedral_coeff	28	-0.14350	0.00000	0.25300	0.00000	-0.09050	0.00000	#	hc,c,c,oc
dihedral_coeff	29	-0.14320	0.00000	0.06170	0.00000	-0.10830	0.00000	#	hc,c,c1,hc
dihedral_coeff	30	-0.14350	0.00000	0.25300	0.00000	-0.09050	0.00000	#	hc,c,c1,oc
dihedral_coeff	31	-0.14320	0.00000	0.06170	0.00000	-0.10830	0.00000	#	hc,c,c3h,hc
dihedral_coeff	32	-0.14350	0.00000	0.25300	0.00000	-0.09050	0.00000	#	hc,c,c3h,o3e
dihedral_coeff	33	-0.14350	0.00000	0.25300	0.00000	-0.09050	0.00000	#	hc,c1,c,oc
dihedral_coeff	34	-0.14350	0.00000	0.25300	0.00000	-0.09050	0.00000	#	hc,c1,c,oh
dihedral_coeff	35	-0.14350	0.00000	0.25300	0.00000	-0.09050	0.00000	#	hc,c3h,c,o3e
dihedral_coeff	36	-0.14350	0.00000	0.25300	0.00000	-0.09050	0.00000	#	hc,c3h,c,oc
dihedral_coeff	37	-0.18200	0.00000	-0.10840	0.00000	-0.70470	0.00000	#	o3e,c3h,c,oc
dihedral_coeff	38	-0.18200	0.00000	-0.10840	0.00000	-0.70470	0.00000	#	oc,c,c1,oc
dihedral_coeff	39	-0.18200	0.00000	-0.10840	0.00000	-0.70470	0.00000	#	oc,c1,c,oh
dihedral_coeff	40	-0.52030	0.00000	-0.30280	0.00000	-0.34500	0.00000	#	c1,c,oc,c1

# MiddleBondTorsion Coeffs

dihedral_coeff	1	mbt	-17.78700	-7.18770	0.00000	1.53000	#	c,c,c,c
dihedral_coeff	2	mbt	-17.78700	-7.18770	0.00000	1.53000	#	c,c,c,c1
dihedral_coeff	3	mbt	-14.87900	-3.65810	-0.31380	1.53000	#	c,c,c,hc
dihedral_coeff	4	mbt	-21.88420	-7.67640	-0.68680	1.53000	#	c,c,c,oc
dihedral_coeff	5	mbt	-17.78700	-7.18770	0.00000	1.53000	#	c,c,c1,c
dihedral_coeff	6	mbt	-14.87900	-3.65810	-0.31380	1.53000	#	c,c,c1,hc
dihedral_coeff	7	mbt	-5.92880	-2.70070	-0.31750	1.42000	#	c,c,oc,c
dihedral_coeff	8	mbt	-5.92880	-2.70070	-0.31750	1.42000	#	c,c,oc,c1
dihedral_coeff	9	mbt	-14.87900	-3.65810	-0.31380	1.53000	#	c,c1,c,hc
dihedral_coeff	10	mbt	-21.88420	-7.67640	-0.68680	1.53000	#	c,c1,c,oc
dihedral_coeff	11	mbt	-21.88420	-7.67640	-0.68680	1.53000	#	c,c1,c,oh
dihedral_coeff	12	mbt	-5.92880	-2.70070	-0.31750	1.42000	#	c,c1,oc,c
dihedral_coeff	13	mbt	-14.87900	-3.65810	-0.31380	1.53000	#	c,c3h,c,hc
dihedral_coeff	14	mbt	-21.88420	-7.67640	-0.68680	1.53000	#	c,c3h,c,o3e
dihedral_coeff	15	mbt	-21.88420	-7.67640	-0.68680	1.53000	#	c,c3h,c,oc
dihedral_coeff	16	mbt	-5.92880	-2.70070	-0.31750	1.42000	#	c,c3h,o3e,c
dihedral_coeff	17	mbt	-6.80070	-4.65460	-1.41010	1.42000	#	c,o3e,c3h,hc
dihedral_coeff	18	mbt	-5.92880	-2.70070	-0.31750	1.42000	#	c,oc,c,c1
dihedral_coeff	19	mbt	-5.92880	-2.70070	-0.31750	1.42000	#	c,oc,c,c3h
dihedral_coeff	20	mbt	-6.80070	-4.65460	-1.41010	1.42000	#	c,oc,c,hc
dihedral_coeff	21	mbt	-6.80070	-4.65460	-1.41010	1.42000	#	c,oc,c1,hc
dihedral_coeff	22	mbt	-14.87900	-3.65810	-0.31380	1.53000	#	c1,c,c,hc
dihedral_coeff	23	mbt	0.00000	0.00000	0.00000	1.42000	#	c1,c,oh,h
dihedral_coeff	24	mbt	-6.80070	-4.65460	-1.41010	1.42000	#	c1,oc,c,hc
dihedral_coeff	25	mbt	-6.80070	-4.65460	-1.41010	1.42000	#	c3h,o3e,c,hc
dihedral_coeff	26	mbt	0.00000	0.00000	0.00000	1.42000	#	h,oh,c,hc
dihedral_coeff	27	mbt	-14.26100	-0.53220	-0.48640	1.53000	#	hc,c,c,hc
dihedral_coeff	28	mbt	-16.79750	-1.22960	-0.27500	1.53000	#	hc,c,c,oc
dihedral_coeff	29	mbt	-14.26100	-0.53220	-0.48640	1.53000	#	hc,c,c1,hc
dihedral_coeff	30	mbt	-16.79750	-1.22960	-0.27500	1.53000	#	hc,c,c1,oc
dihedral_coeff	31	mbt	-14.26100	-0.53220	-0.48640	1.53000	#	hc,c,c3h,hc
dihedral_coeff	32	mbt	-16.79750	-1.22960	-0.27500	1.53000	#	hc,c,c3h,o3e
dihedral_coeff	33	mbt	-16.79750	-1.22960	-0.27500	1.53000	#	hc,c1,c,oc
dihedral_coeff	34	mbt	-16.79750	-1.22960	-0.27500	1.53000	#	hc,c1,c,oh
dihedral_coeff	35	mbt	-16.79750	-1.22960	-0.27500	1.53000	#	hc,c3h,c,o3e
dihedral_coeff	36	mbt	-16.79750	-1.22960	-0.27500	1.53000	#	hc,c3h,c,oc
dihedral_coeff	37	mbt	-17.25850	-3.61570	-0.83640	1.53000	#	o3e,c3h,c,oc
dihedral_coeff	38	mbt	-17.25850	-3.61570	-0.83640	1.53000	#	oc,c,c1,oc
dihedral_coeff	39	mbt	-17.25850	-3.61570	-0.83640	1.53000	#	oc,c1,c,oh
dihedral_coeff	40	mbt	-5.92880	-2.70070	-0.31750	1.42000	#	c1,c,oc,c1

# EndBondTorsion Coeffs

dihedral_coeff	1	ebt	-0.07320	0.00000	0.00000	-0.07320	0.00000	0.00000	1.53000	1.53000	#	c,c,c,c
dihedral_coeff	2	ebt	-0.07320	0.00000	0.00000	-0.07320	0.00000	0.00000	1.53000	1.53000	#	c,c,c,c1
dihedral_coeff	3	ebt	0.24860	0.24220	-0.09250	0.08140	0.05910	0.22190	1.53000	1.10100	#	c,c,c,hc
dihedral_coeff	4	ebt	-0.31900	0.44110	-0.71740	1.15380	0.84090	-0.91380	1.53000	1.42000	#	c,c,c,oc
dihedral_coeff	5	ebt	-0.07320	0.00000	0.00000	-0.07320	0.00000	0.00000	1.53000	1.53000	#	c,c,c1,c
dihedral_coeff	6	ebt	0.24860	0.24220	-0.09250	0.08140	0.05910	0.22190	1.53000	1.10100	#	c,c,c1,hc
dihedral_coeff	7	ebt	-0.24560	1.05170	-0.77950	0.47410	1.26350	0.55760	1.53000	1.42000	#	c,c,oc,c
dihedral_coeff	8	ebt	-0.24560	1.05170	-0.77950	0.47410	1.26350	0.55760	1.53000	1.42000	#	c,c,oc,c1
dihedral_coeff	9	ebt	0.24860	0.24220	-0.09250	0.08140	0.05910	0.22190	1.53000	1.10100	#	c,c1,c,hc
dihedral_coeff	10	ebt	-0.31900	0.44110	-0.71740	1.15380	0.84090	-0.91380	1.53000	1.42000	#	c,c1,c,oc
dihedral_coeff	11	ebt	-0.31900	0.44110	-0.71740	1.15380	0.84090	-0.91380	1.53000	1.42000	#	c,c1,c,oh
dihedral_coeff	12	ebt	-0.24560	1.05170	-0.77950	0.47410	1.26350	0.55760	1.53000	1.42000	#	c,c1,oc,c
dihedral_coeff	13	ebt	0.24860	0.24220	-0.09250	0.08140	0.05910	0.22190	1.53000	1.10100	#	c,c3h,c,hc
dihedral_coeff	14	ebt	-0.31900	0.44110	-0.71740	1.15380	0.84090	-0.91380	1.53000	1.42000	#	c,c3h,c,o3e
dihedral_coeff	15	ebt	-0.31900	0.44110	-0.71740	1.15380	0.84090	-0.91380	1.53000	1.42000	#	c,c3h,c,oc
dihedral_coeff	16	ebt	-0.24560	1.05170	-0.77950	0.47410	1.26350	0.55760	1.53000	1.42000	#	c,c3h,o3e,c
dihedral_coeff	17	ebt	-0.16200	0.15640	-1.14080	-0.60540	1.33390	0.96480	1.42000	1.10100	#	c,o3e,c3h,hc
dihedral_coeff	18	ebt	0.47410	1.26350	0.55760	-0.24560	1.05170	-0.77950	1.42000	1.53000	#	c,oc,c,c1
dihedral_coeff	19	ebt	0.47410	1.26350	0.55760	-0.24560	1.05170	-0.77950	1.42000	1.53000	#	c,oc,c,c3h
dihedral_coeff	20	ebt	-0.16200	0.15640	-1.14080	-0.60540	1.33390	0.96480	1.42000	1.10100	#	c,oc,c,hc
dihedral_coeff	21	ebt	-0.16200	0.15640	-1.14080	-0.60540	1.33390	0.96480	1.42000	1.10100	#	c,oc,c1,hc
dihedral_coeff	22	ebt	0.08140	0.05910	0.22190	0.24860	0.24220	-0.09250	1.53000	1.10100	#	c1,c,c,hc
dihedral_coeff	23	ebt	0.00000	0.00000	0.00000	0.00000	0.00000	0.00000	1.53000	0.96000	#	c1,c,oh,h
dihedral_coeff	24	ebt	-0.60540	1.33390	0.96480	-0.16200	0.15640	-1.14080	1.42000	1.10100	#	c1,oc,c,hc
dihedral_coeff	25	ebt	-0.60540	1.33390	0.96480	-0.16200	0.15640	-1.14080	1.42000	1.10100	#	c3h,o3e,c,hc
dihedral_coeff	26	ebt	0.00000	0.00000	0.00000	0.00000	0.00000	0.00000	0.96000	1.10100	#	h,oh,c,hc
dihedral_coeff	27	ebt	0.21300	0.31200	0.07770	0.21300	0.31200	0.07770	1.10100	1.10100	#	hc,c,c,hc
dihedral_coeff	28	ebt	0.96810	0.95510	0.04360	0.59030	0.66690	0.85840	1.10100	1.42000	#	hc,c,c,oc
dihedral_coeff	29	ebt	0.21300	0.31200	0.07770	0.21300	0.31200	0.07770	1.10100	1.10100	#	hc,c,c1,hc
dihedral_coeff	30	ebt	0.96810	0.95510	0.04360	0.59030	0.66690	0.85840	1.10100	1.42000	#	hc,c,c1,oc
dihedral_coeff	31	ebt	0.21300	0.31200	0.07770	0.21300	0.31200	0.07770	1.10100	1.10100	#	hc,c,c3h,hc
dihedral_coeff	32	ebt	0.96810	0.95510	0.04360	0.59030	0.66690	0.85840	1.10100	1.42000	#	hc,c,c3h,o3e
dihedral_coeff	33	ebt	0.96810	0.95510	0.04360	0.59030	0.66690	0.85840	1.10100	1.42000	#	hc,c1,c,oc
dihedral_coeff	34	ebt	0.96810	0.95510	0.04360	0.59030	0.66690	0.85840	1.10100	1.42000	#	hc,c1,c,oh
dihedral_coeff	35	ebt	0.96810	0.95510	0.04360	0.59030	0.66690	0.85840	1.10100	1.42000	#	hc,c3h,c,o3e
dihedral_coeff	36	ebt	0.96810	0.95510	0.04360	0.59030	0.66690	0.85840	1.10100	1.42000	#	hc,c3h,c,oc
dihedral_coeff	37	ebt	1.01650	0.75530	-0.46090	1.01650	0.75530	-0.46090	1.42000	1.42000	#	o3e,c3h,c,oc
dihedral_coeff	38	ebt	1.01650	0.75530	-0.46090	1.01650	0.75530	-0.46090	1.42000	1.42000	#	oc,c,c1,oc
dihedral_coeff	39	ebt	1.01650	0.75530	-0.46090	1.01650	0.75530	-0.46090	1.42000	1.42000	#	oc,c1,c,oh
dihedral_coeff	40	ebt	-0.24560	1.05170	-0.77950	0.47410	1.26350	0.55760	1.53000	1.42000	#	c1,c,oc,c1

# AngleTorsion Coeffs

dihedral_coeff	1	at	0.38860	-0.31390	0.13890	0.38860	-0.31390	0.13890	112.67000	112.67000	#	c,c,c,c
dihedral_coeff	2	at	0.38860	-0.31390	0.13890	0.38860	-0.31390	0.13890	112.67000	112.67000	#	c,c,c,c1
dihedral_coeff	3	at	-0.24540	0.00000	-0.11360	0.31130	0.45160	-0.19880	112.67000	110.77000	#	c,c,c,hc
dihedral_coeff	4	at	0.56230	-0.30410	-0.40150	0.96720	-0.75660	-1.23310	112.67000	111.27000	#	c,c,c,oc
dihedral_coeff	5	at	0.38860	-0.31390	0.13890	0.38860	-0.31390	0.13890	112.67000	112.67000	#	c,c,c1,c
dihedral_coeff	6	at	-0.24540	0.00000	-0.11360	0.31130	0.45160	-0.19880	112.67000	110.77000	#	c,c,c1,hc
dihedral_coeff	7	at	-2.74660	1.48770	-0.89550	0.56760	0.94500	0.07030	111.27000	104.50000	#	c,c,oc,c
dihedral_coeff	8	at	-2.74660	1.48770	-0.89550	0.56760	0.94500	0.07030	111.27000	104.50000	#	c,c,oc,c1
dihedral_coeff	9	at	-0.24540	0.00000	-0.11360	0.31130	0.45160	-0.19880	112.67000	110.77000	#	c,c1,c,hc
dihedral_coeff	10	at	0.56230	-0.30410	-0.40150	0.96720	-0.75660	-1.23310	112.67000	111.27000	#	c,c1,c,oc
dihedral_coeff	11	at	0.56230	-0.30410	-0.40150	0.96720	-0.75660	-1.23310	112.67000	111.27000	#	c,c1,c,oh
dihedral_coeff	12	at	-2.74660	1.48770	-0.89550	0.56760	0.94500	0.07030	111.27000	104.50000	#	c,c1,oc,c
dihedral_coeff	13	at	-0.24540	0.00000	-0.11360	0.31130	0.45160	-0.19880	112.67000	110.77000	#	c,c3h,c,hc
dihedral_coeff	14	at	0.56230	-0.30410	-0.40150	0.96720	-0.75660	-1.23310	112.67000	111.27000	#	c,c3h,c,o3e
dihedral_coeff	15	at	0.56230	-0.30410	-0.40150	0.96720	-0.75660	-1.23310	112.67000	111.27000	#	c,c3h,c,oc
dihedral_coeff	16	at	-2.74660	1.48770	-0.89550	0.56760	0.94500	0.07030	111.27000	104.50000	#	c,c3h,o3e,c
dihedral_coeff	17	at	-0.77770	0.43400	-0.66530	-1.82340	1.63930	0.51440	104.50000	108.72800	#	c,o3e,c3h,hc
dihedral_coeff	18	at	0.56760	0.94500	0.07030	-2.74660	1.48770	-0.89550	104.50000	111.27000	#	c,oc,c,c1
dihedral_coeff	19	at	0.56760	0.94500	0.07030	-2.74660	1.48770	-0.89550	104.50000	111.27000	#	c,oc,c,c3h
dihedral_coeff	20	at	-0.77770	0.43400	-0.66530	-1.82340	1.63930	0.51440	104.50000	108.72800	#	c,oc,c,hc
dihedral_coeff	21	at	-0.77770	0.43400	-0.66530	-1.82340	1.63930	0.51440	104.50000	108.72800	#	c,oc,c1,hc
dihedral_coeff	22	at	0.31130	0.45160	-0.19880	-0.24540	0.00000	-0.11360	112.67000	110.77000	#	c1,c,c,hc
dihedral_coeff	23	at	0.00000	0.00000	0.00000	0.00000	0.00000	0.00000	111.27000	109.00000	#	c1,c,oh,h
dihedral_coeff	24	at	-1.82340	1.63930	0.51440	-0.77770	0.43400	-0.66530	104.50000	108.72800	#	c1,oc,c,hc
dihedral_coeff	25	at	-1.82340	1.63930	0.51440	-0.77770	0.43400	-0.66530	104.50000	108.72800	#	c3h,o3e,c,hc
dihedral_coeff	26	at	0.00000	0.00000	0.00000	0.00000	0.00000	0.00000	109.00000	108.72800	#	h,oh,c,hc
dihedral_coeff	27	at	-0.80850	0.55690	-0.24660	-0.80850	0.55690	-0.24660	110.77000	110.77000	#	hc,c,c,hc
dihedral_coeff	28	at	2.36680	2.49200	-1.01220	-0.18920	0.49180	0.72730	110.77000	111.27000	#	hc,c,c,oc
dihedral_coeff	29	at	-0.80850	0.55690	-0.24660	-0.80850	0.55690	-0.24660	110.77000	110.77000	#	hc,c,c1,hc
dihedral_coeff	30	at	2.36680	2.49200	-1.01220	-0.18920	0.49180	0.72730	110.77000	111.27000	#	hc,c,c1,oc
dihedral_coeff	31	at	-0.80850	0.55690	-0.24660	-0.80850	0.55690	-0.24660	110.77000	110.77000	#	hc,c,c3h,hc
dihedral_coeff	32	at	2.36680	2.49200	-1.01220	-0.18920	0.49180	0.72730	110.77000	111.27000	#	hc,c,c3h,o3e
dihedral_coeff	33	at	2.36680	2.49200	-1.01220	-0.18920	0.49180	0.72730	110.77000	111.27000	#	hc,c1,c,oc
dihedral_coeff	34	at	2.36680	2.49200	-1.01220	-0.18920	0.49180	0.72730	110.77000	111.27000	#	hc,c1,c,oh
dihedral_coeff	35	at	2.36680	2.49200	-1.01220	-0.18920	0.49180	0.72730	110.77000	111.27000	#	hc,c3h,c,o3e
dihedral_coeff	36	at	2.36680	2.49200	-1.01220	-0.18920	0.49180	0.72730	110.77000	111.27000	#	hc,c3h,c,oc
dihedral_coeff	37	at	0.55110	0.97370	-0.66730	0.55110	0.97370	-0.66730	111.27000	111.27000	#	o3e,c3h,c,oc
dihedral_coeff	38	at	0.55110	0.97370	-0.66730	0.55110	0.97370	-0.66730	111.27000	111.27000	#	oc,c,c1,oc
dihedral_coeff	39	at	0.55110	0.97370	-0.66730	0.55110	0.97370	-0.66730	111.27000	111.27000	#	oc,c1,c,oh
dihedral_coeff	40	at	-2.74660	1.48770	-0.89550	0.56760	0.94500	0.07030	111.27000	104.50000	#	c1,c,oc,c1

# AngleAngleTorsion Coeffs

dihedral_coeff	1	aat	-22.04500	112.67000	112.67000	#	c,c,c,c
dihedral_coeff	2	aat	-22.04500	112.67000	112.67000	#	c,c,c,c1
dihedral_coeff	3	aat	-16.16400	112.67000	110.77000	#	c,c,c,hc
dihedral_coeff	4	aat	-29.04200	112.67000	111.27000	#	c,c,c,oc
dihedral_coeff	5	aat	-22.04500	112.67000	112.67000	#	c,c,c1,c
dihedral_coeff	6	aat	-16.16400	112.67000	110.77000	#	c,c,c1,hc
dihedral_coeff	7	aat	-19.00590	111.27000	104.50000	#	c,c,oc,c
dihedral_coeff	8	aat	-19.00590	111.27000	104.50000	#	c,c,oc,c1
dihedral_coeff	9	aat	-16.16400	112.67000	110.77000	#	c,c1,c,hc
dihedral_coeff	10	aat	-29.04200	112.67000	111.27000	#	c,c1,c,oc
dihedral_coeff	11	aat	-29.04200	112.67000	111.27000	#	c,c1,c,oh
dihedral_coeff	12	aat	-19.00590	111.27000	104.50000	#	c,c1,oc,c
dihedral_coeff	13	aat	-16.16400	112.67000	110.77000	#	c,c3h,c,hc
dihedral_coeff	14	aat	-29.04200	112.67000	111.27000	#	c,c3h,c,o3e
dihedral_coeff	15	aat	-29.04200	112.67000	111.27000	#	c,c3h,c,oc
dihedral_coeff	16	aat	-19.00590	111.27000	104.50000	#	c,c3h,o3e,c
dihedral_coeff	17	aat	-16.44380	104.50000	108.72800	#	c,o3e,c3h,hc
dihedral_coeff	18	aat	-19.00590	104.50000	111.27000	#	c,oc,c,c1
dihedral_coeff	19	aat	-19.00590	104.50000	111.27000	#	c,oc,c,c3h
dihedral_coeff	20	aat	-16.44380	104.50000	108.72800	#	c,oc,c,hc
dihedral_coeff	21	aat	-16.44380	104.50000	108.72800	#	c,oc,c1,hc
dihedral_coeff	22	aat	-16.16400	112.67000	110.77000	#	c1,c,c,hc
dihedral_coeff	23	aat	0.00000	111.27000	109.00000	#	c1,c,oh,h
dihedral_coeff	24	aat	-16.44380	104.50000	108.72800	#	c1,oc,c,hc
dihedral_coeff	25	aat	-16.44380	104.50000	108.72800	#	c3h,o3e,c,hc
dihedral_coeff	26	aat	0.00000	109.00000	108.72800	#	h,oh,c,hc
dihedral_coeff	27	aat	-12.56400	110.77000	110.77000	#	hc,c,c,hc
dihedral_coeff	28	aat	-20.20060	110.77000	111.27000	#	hc,c,c,oc
dihedral_coeff	29	aat	-12.56400	110.77000	110.77000	#	hc,c,c1,hc
dihedral_coeff	30	aat	-20.20060	110.77000	111.27000	#	hc,c,c1,oc
dihedral_coeff	31	aat	-12.56400	110.77000	110.77000	#	hc,c,c3h,hc
dihedral_coeff	32	aat	-20.20060	110.77000	111.27000	#	hc,c,c3h,o3e
dihedral_coeff	33	aat	-20.20060	110.77000	111.27000	#	hc,c1,c,oc
dihedral_coeff	34	aat	-20.20060	110.77000	111.27000	#	hc,c1,c,oh
dihedral_coeff	35	aat	-20.20060	110.77000	111.27000	#	hc,c3h,c,o3e
dihedral_coeff	36	aat	-20.20060	110.77000	111.27000	#	hc,c3h,c,oc
dihedral_coeff	37	aat	-14.04840	111.27000	111.27000	#	o3e,c3h,c,oc
dihedral_coeff	38	aat	-14.04840	111.27000	111.27000	#	oc,c,c1,oc
dihedral_coeff	39	aat	-14.04840	111.27000	111.27000	#	oc,c1,c,oh
dihedral_coeff	40	aat	-19.00590	111.27000	104.50000	#	c1,c,oc,c1

# BondBond13 Coeffs

dihedral_coeff	1	bb13	0.00000	1.53000	1.53000	#	c,c,c,c
dihedral_coeff	2	bb13	0.00000	1.53000	1.53000	#	c,c,c,c1
dihedral_coeff	3	bb13	0.00000	1.53000	1.10100	#	c,c,c,hc
dihedral_coeff	4	bb13	0.00000	1.53000	1.42000	#	c,c,c,oc
dihedral_coeff	5	bb13	0.00000	1.53000	1.53000	#	c,c,c1,c
dihedral_coeff	6	bb13	0.00000	1.53000	1.10100	#	c,c,c1,hc
dihedral_coeff	7	bb13	0.00000	1.53000	1.42000	#	c,c,oc,c
dihedral_coeff	8	bb13	0.00000	1.53000	1.42000	#	c,c,oc,c1
dihedral_coeff	9	bb13	0.00000	1.53000	1.10100	#	c,c1,c,hc
dihedral_coeff	10	bb13	0.00000	1.53000	1.42000	#	c,c1,c,oc
dihedral_coeff	11	bb13	0.00000	1.53000	1.42000	#	c,c1,c,oh
dihedral_coeff	12	bb13	0.00000	1.53000	1.42000	#	c,c1,oc,c
dihedral_coeff	13	bb13	0.00000	1.53000	1.10100	#	c,c3h,c,hc
dihedral_coeff	14	bb13	0.00000	1.53000	1.42000	#	c,c3h,c,o3e
dihedral_coeff	15	bb13	0.00000	1.53000	1.42000	#	c,c3h,c,oc
dihedral_coeff	16	bb13	0.00000	1.53000	1.42000	#	c,c3h,o3e,c
dihedral_coeff	17	bb13	0.00000	1.42000	1.10100	#	c,o3e,c3h,hc
dihedral_coeff	18	bb13	0.00000	1.42000	1.53000	#	c,oc,c,c1
dihedral_coeff	19	bb13	0.00000	1.42000	1.53000	#	c,oc,c,c3h
dihedral_coeff	20	bb13	0.00000	1.42000	1.10100	#	c,oc,c,hc
dihedral_coeff	21	bb13	0.00000	1.42000	1.10100	#	c,oc,c1,hc
dihedral_coeff	22	bb13	0.00000	1.53000	1.10100	#	c1,c,c,hc
dihedral_coeff	23	bb13	0.00000	1.53000	0.96000	#	c1,c,oh,h
dihedral_coeff	24	bb13	0.00000	1.42000	1.10100	#	c1,oc,c,hc
dihedral_coeff	25	bb13	0.00000	1.42000	1.10100	#	c3h,o3e,c,hc
dihedral_coeff	26	bb13	0.00000	0.96000	1.10100	#	h,oh,c,hc
dihedral_coeff	27	bb13	0.00000	1.10100	1.10100	#	hc,c,c,hc
dihedral_coeff	28	bb13	0.00000	1.10100	1.42000	#	hc,c,c,oc
dihedral_coeff	29	bb13	0.00000	1.10100	1.10100	#	hc,c,c1,hc
dihedral_coeff	30	bb13	0.00000	1.10100	1.42000	#	hc,c,c1,oc
dihedral_coeff	31	bb13	0.00000	1.10100	1.10100	#	hc,c,c3h,hc
dihedral_coeff	32	bb13	0.00000	1.10100	1.42000	#	hc,c,c3h,o3e
dihedral_coeff	33	bb13	0.00000	1.10100	1.42000	#	hc,c1,c,oc
dihedral_coeff	34	bb13	0.00000	1.10100	1.42000	#	hc,c1,c,oh
dihedral_coeff	35	bb13	0.00000	1.10100	1.42000	#	hc,c3h,c,o3e
dihedral_coeff	36	bb13	0.00000	1.10100	1.42000	#	hc,c3h,c,oc
dihedral_coeff	37	bb13	0.00000	1.42000	1.42000	#	o3e,c3h,c,oc
dihedral_coeff	38	bb13	0.00000	1.42000	1.42000	#	oc,c,c1,oc
dihedral_coeff	39	bb13	0.00000	1.42000	1.42000	#	oc,c1,c,oh
dihedral_coeff	40	bb13	0.00000	1.53000	1.42000	#	c1,c,oc,c1

# Improper Coeffs

improper_coeff	1	0.00000	0.00000	#	c,c,c,hc
improper_coeff	2	0.00000	0.00000	#	c,c,c1,hc
improper_coeff	3	0.00000	0.00000	#	c,c,hc,c1
improper_coeff	4	0.00000	0.00000	#	c,c,hc,hc
improper_coeff	5	0.00000	0.00000	#	c,c,hc,oc
improper_coeff	6	0.00000	0.00000	#	c,c,oc,hc
improper_coeff	7	0.00000	0.00000	#	c,c1,hc,hc
improper_coeff	8	0.00000	0.00000	#	c,c1,hc,oc
improper_coeff	9	0.00000	0.00000	#	c,c1,oc,hc
improper_coeff	10	0.00000	0.00000	#	c,c1,oh,hc
improper_coeff	11	0.00000	0.00000	#	c,c3h,hc,hc
improper_coeff	12	0.00000	0.00000	#	c,c3h,hc,o3e
improper_coeff	13	0.00000	0.00000	#	c,c3h,hc,oc
improper_coeff	14	0.00000	0.00000	#	c,hc,hc,hc
improper_coeff	15	0.00000	0.00000	#	c,hc,hc,o3e
improper_coeff	16	0.00000	0.00000	#	c,hc,hc,oc
improper_coeff	17	0.00000	0.00000	#	c,hc,hc,oh
improper_coeff	18	0.00000	0.00000	#	c1,c,c,c
improper_coeff	19	0.00000	0.00000	#	c1,c,c,hc
improper_coeff	20	0.00000	0.00000	#	c1,c,c,oc
improper_coeff	21	0.00000	0.00000	#	c1,c,oc,hc
improper_coeff	22	0.00000	0.00000	#	c3h,c,c,hc
improper_coeff	23	0.00000	0.00000	#	c3h,c,c,o3e
improper_coeff	24	0.00000	0.00000	#	c3h,c,o3e,hc

# AngleAngle Coeffs

improper_coeff	1	aa	-1.31990	-1.31990	0.11840	112.67000	110.77000	110.77000	#	c,c,c,hc
improper_coeff	2	aa	-1.31990	0.00000	0.11840	112.67000	110.77000	110.77000	#	c,c,c1,hc
improper_coeff	3	aa	0.11840	0.00000	-1.31990	110.77000	112.67000	110.77000	#	c,c,hc,c1
improper_coeff	4	aa	0.27380	-0.48250	0.27380	110.77000	110.77000	107.66000	#	c,c,hc,hc
improper_coeff	5	aa	3.91770	2.59260	0.16890	110.77000	111.27000	108.72800	#	c,c,hc,oc
improper_coeff	6	aa	0.16890	2.59260	3.91770	111.27000	110.77000	108.72800	#	c,c,oc,hc
improper_coeff	7	aa	0.00000	-0.48250	0.00000	110.77000	110.77000	107.66000	#	c,c1,hc,hc
improper_coeff	8	aa	3.91770	2.59260	0.00000	110.77000	111.27000	108.72800	#	c,c1,hc,oc
improper_coeff	9	aa	0.00000	2.59260	3.91770	111.27000	110.77000	108.72800	#	c,c1,oc,hc
improper_coeff	10	aa	0.00000	2.59260	3.91770	111.27000	110.77000	108.72800	#	c,c1,oh,hc
improper_coeff	11	aa	0.00000	-0.48250	0.00000	110.77000	110.77000	107.66000	#	c,c3h,hc,hc
improper_coeff	12	aa	3.91770	2.59260	0.00000	110.77000	111.27000	108.72800	#	c,c3h,hc,o3e
improper_coeff	13	aa	0.00000	2.59260	0.00000	110.77000	111.27000	108.72800	#	c,c3h,hc,oc
improper_coeff	14	aa	-0.31570	-0.31570	-0.31570	107.66000	107.66000	107.66000	#	c,hc,hc,hc
improper_coeff	15	aa	2.42590	2.42590	2.12830	107.66000	108.72800	108.72800	#	c,hc,hc,o3e
improper_coeff	16	aa	2.42590	2.42590	2.12830	107.66000	108.72800	108.72800	#	c,hc,hc,oc
improper_coeff	17	aa	2.42590	2.42590	2.12830	107.66000	108.72800	108.72800	#	c,hc,hc,oh
improper_coeff	18	aa	-0.17290	-0.17290	-0.17290	112.67000	112.67000	112.67000	#	c1,c,c,c
improper_coeff	19	aa	-1.31990	-1.31990	0.11840	112.67000	110.77000	110.77000	#	c1,c,c,hc
improper_coeff	20	aa	-0.83300	-0.83300	-3.57440	112.67000	111.27000	111.27000	#	c1,c,c,oc
improper_coeff	21	aa	0.16890	2.59260	3.91770	111.27000	110.77000	108.72800	#	c1,c,oc,hc
improper_coeff	22	aa	-1.31990	-1.31990	0.11840	112.67000	110.77000	110.77000	#	c3h,c,c,hc
improper_coeff	23	aa	-0.83300	-0.83300	-3.57440	112.67000	111.27000	111.27000	#	c3h,c,c,o3e
improper_coeff	24	aa	0.16890	2.59260	3.91770	111.27000	110.77000	108.72800	#	c3h,c,o3e,hc

# ------------------------------- OPT Section -------------------------------
minimize 1.0e-5 1.0e-7 100000 400000
Generated 28 of 28 mixed pair_coeff terms from sixthpower/geometric mixing rule
Neighbor list info ...
  update: every = 1 steps, delay = 0 steps, check = yes
  max neighbors/atom: 2000, page size: 100000
  master list distance cutoff = 12
  ghost atom cutoff = 12
  binsize = 6, bins = 8 8 8
  1 neighbor lists, perpetual/occasional/extra = 1 0 0
  (1) pair lj/class2/coul/cut, perpetual
      attributes: half, newton on
      pair build: half/bin/newton
      stencil: half/bin/3d
      bin: standard
Per MPI rank memory allocation (min/avg/max) = 28.27 | 28.64 | 29.02 Mbytes
   Step          Temp          E_pair         E_mol          TotEng         Press     
         0   0             -557.64283      16765.171      16207.529     -1111.5556    
        41   0             -1094.696       12602.524      11507.828      2336.3145    
Loop time of 1.27337 on 6 procs for 41 steps with 4984 atoms

99.1% CPU use with 6 MPI tasks x no OpenMP threads

Minimization stats:
  Stopping criterion = linesearch alpha is zero
  Energy initial, next-to-last, final = 
       16207.528615087   11507.8283123323   11507.8283123323
  Force two-norm initial, final = 2336.7448 133.44219
  Force max component initial, final = 245.12792 42.15499
  Final line search alpha, max atom move = 5.5310008e-13 2.3315928e-11
  Iterations, force evaluations = 41 143

MPI task timing breakdown:
Section |  min time  |  avg time  |  max time  |%varavg| %total
---------------------------------------------------------------
Pair    | 0.22607    | 0.40576    | 0.5863     |  19.6 | 31.87
Bond    | 0.32685    | 0.42555    | 0.57293    |  13.2 | 33.42
Neigh   | 0          | 0          | 0          |   0.0 |  0.00
Comm    | 0.097659   | 0.42164    | 0.69627    |  30.1 | 33.11
Output  | 0          | 0          | 0          |   0.0 |  0.00
Modify  | 0          | 0          | 0          |   0.0 |  0.00
Other   |            | 0.02041    |            |       |  1.60

Nlocal:        830.667 ave        1019 max         593 min
Histogram: 1 1 0 0 0 0 2 0 1 1
Nghost:           6124 ave        6427 max        5865 min
Histogram: 1 1 0 1 0 1 1 0 0 1
Neighs:         162339 ave      216834 max       93475 min
Histogram: 1 1 0 0 0 1 0 0 2 1

Total # of neighbors = 974033
Ave neighs/atom = 195.43198
Ave special neighs/atom = 10.44382
Neighbor list builds = 0
Dangerous builds = 0
# ------------------------------- Run Section -------------------------------
#

thermo_style custom step temp pe evdwl ecoul ebond eangle edihed eimp density vol
thermo          100

fix Langevin  all langevin 300 300 100.0 482432
fix moveLimit all nve/limit 0.1
run 20000
Generated 28 of 28 mixed pair_coeff terms from sixthpower/geometric mixing rule
Per MPI rank memory allocation (min/avg/max) = 27.14 | 27.58 | 27.9 Mbytes
   Step          Temp          PotEng         E_vdwl         E_coul         E_bond        E_angle        E_dihed        E_impro        Density         Volume    
        41   0              11507.828     -730.74418     -363.95181      245.94988      16102.449     -3670.6387     -75.235541      0.44999999     97670.155    
       100   162.25246      12907.13      -752.75987     -335.41235      931.05397      16824.967     -3677.9417     -82.776648      0.44999999     97670.155    
       200   262.30487      13939.767     -956.54633     -335.92654      1508.2013      17375.537     -3560.4637     -91.034771      0.44999999     97670.155    
       300   291.48269      14211.878     -1010.902      -276.539        1698.3152      17528.411     -3646.9605     -80.446932      0.44999999     97670.155    
       400   301.12019      14252.97      -1054.8582     -255.3128       1726.4369      17597.729     -3661.8341     -99.190726      0.44999999     97670.155    
       500   301.44467      14256.149     -1030.4397     -327.36783      1744.2459      17650.506     -3685.2013     -95.594453      0.44999999     97670.155    
       600   303.90224      14243.731     -1055.9612     -260.37536      1854.6163      17481.734     -3672.4508     -103.83173      0.44999999     97670.155    
       700   300.15603      14352.919     -1055.6182     -232.12703      1860.0041      17596.127     -3721.4113     -94.056254      0.44999999     97670.155    
       800   303.88861      14182.564     -1075.3761     -303.09335      1845.8618      17573.925     -3751.0542     -107.6991       0.44999999     97670.155    
       900   301.93167      14174.746     -1041.7914     -320.47431      1861.6481      17480.851     -3716.9361     -88.55155       0.44999999     97670.155    
      1000   298.37275      13832.514     -1069.7376     -486.21029      1789.8299      17460.534     -3767.0241     -94.878417      0.44999999     97670.155    
      1100   296.59043      14075.258     -1049.4004     -323.65934      1840.3153      17452.093     -3743.215      -100.87596      0.44999999     97670.155    
      1200   300.61147      13988.291     -1033.7734     -416.55471      1835.2628      17485.552     -3795.9947     -86.200174      0.44999999     97670.155    
      1300   305.12965      13892.563     -1064.7244     -408.21914      1793.505       17467.395     -3796.6444     -98.748739      0.44999999     97670.155    
      1400   298.5657       13745.88      -1093.5423     -508.79076      1731.4323      17465.098     -3752.8391     -95.478103      0.44999999     97670.155    
      1500   297.71123      13856.689     -1038.5534     -436.3475       1806.6635      17461.118     -3835.8261     -100.36601      0.44999999     97670.155    
      1600   305.2042       13768.011     -1058.6076     -447.10918      1772.4651      17363.552     -3766.2507     -96.038873      0.44999999     97670.155    
      1700   301.57837      13941.16      -1072.8584     -379.87185      1868.9286      17474.924     -3858.2002     -91.762952      0.44999999     97670.155    
      1800   294.71738      13892.769     -1046.856      -458.29125      1853.3551      17455.007     -3805.1863     -105.25999      0.44999999     97670.155    
      1900   301.30944      13858.453     -1082.6971     -431.00404      1862.6915      17419.833     -3815.3824     -94.987238      0.44999999     97670.155    
      2000   301.00094      13836.348     -1052.0762     -388.71521      1856.1767      17349.99      -3832.1681     -96.8596        0.44999999     97670.155    
      2100   296.45064      13843.193     -1068.2638     -403.69087      1816.5642      17455.385     -3859.5263     -97.275422      0.44999999     97670.155    
      2200   298.4936       13751.63      -1077.7353     -387.43194      1770.6411      17422.687     -3883.5872     -92.944295      0.44999999     97670.155    
      2300   302.23892      13834.636     -1037.35       -445.74635      1874.9735      17415.287     -3875.7271     -96.801054      0.44999999     97670.155    
      2400   306.32749      13916.223     -1088.2591     -387.50365      1858.5376      17444.649     -3821.8359     -89.365228      0.44999999     97670.155    
      2500   301.84492      13811.558     -1005.5467     -418.63327      1793.6941      17400.247     -3865.9174     -92.285559      0.44999999     97670.155    
      2600   303.09142      13704.633     -1061.7422     -445.23627      1832.0638      17372.705     -3896.3903     -96.766822      0.44999999     97670.155    
      2700   302.11764      13924.058     -1071.7986     -383.63229      1803.0992      17454.139     -3790.3414     -87.408535      0.44999999     97670.155    
      2800   301.38407      13814.05      -1097.5719     -352.68472      1807.5317      17440.289     -3886.2182     -97.295819      0.44999999     97670.155    
      2900   303.1558       13809.618     -1049.8312     -443.3819       1855.3001      17402.074     -3858.9667     -95.577159      0.44999999     97670.155    
      3000   305.72555      13709.195     -1084.2629     -479.25506      1812.7439      17431.877     -3880.8193     -91.088892      0.44999999     97670.155    
      3100   304.45038      13758.113     -1081.9471     -410.07887      1801.6302      17378.06      -3824.1505     -105.40062      0.44999999     97670.155    
      3200   304.447        13813.245     -1070.6615     -384.0436       1818.9554      17437.798     -3895.0121     -93.790716      0.44999999     97670.155    
      3300   302.58578      13862.077     -1050.0146     -358.77231      1800.1867      17411.385     -3841.3655     -99.342199      0.44999999     97670.155    
      3400   305.43102      13620.698     -1059.7479     -519.5873       1784.0446      17377.632     -3873.7397     -87.904398      0.44999999     97670.155    
      3500   302.69088      13708.978     -1073.8959     -448.6013       1827.3591      17338.288     -3839.0628     -95.109103      0.44999999     97670.155    
      3600   298.74772      13672.416     -1083.993      -452.19466      1778.2159      17381.088     -3846.9166     -103.78387      0.44999999     97670.155    
      3700   303.50664      13666.683     -1102.9        -401.00106      1759.0999      17325.861     -3814.9882     -99.388674      0.44999999     97670.155    
      3800   295.74135      13748.488     -1082.1661     -444.4492       1801.1052      17479.408     -3906.7213     -98.688839      0.44999999     97670.155    
      3900   300.37495      13814.201     -1062.5683     -333.51459      1803.5039      17347.307     -3839.5443     -100.98333      0.44999999     97670.155    
      4000   309.53026      13646.042     -1056.7533     -462.4948       1796.037       17345.838     -3884.2068     -92.378345      0.44999999     97670.155    
      4100   303.77699      13723.914     -1094.6221     -391.29737      1788.9733      17464.686     -3939.6657     -104.16009      0.44999999     97670.155    
      4200   295.27056      13731.984     -1096.0334     -431.90343      1859.7192      17425.638     -3930.0922     -95.343984      0.44999999     97670.155    
      4300   299.7468       13667.743     -1086.116      -472.13722      1848.5728      17382.517     -3907.9054     -97.187553      0.44999999     97670.155    
      4400   301.00503      13631.584     -1063.6709     -499.21658      1832.4586      17345.61      -3884.9046     -98.692229      0.44999999     97670.155    
      4500   300.01206      13750.73      -1068.6453     -397.63452      1842.3894      17352.012     -3878.655      -98.736056      0.44999999     97670.155    
      4600   303.44461      13632.047     -1085.8302     -458.77794      1774.3927      17464.28      -3961.74       -100.2772       0.44999999     97670.155    
      4700   299.82066      13503.741     -1055.0916     -565.20683      1781.5687      17401.82      -3970.004      -89.345562      0.44999999     97670.155    
      4800   294.46087      13633.15      -1067.0432     -490.12018      1818.9919      17378.876     -3906.7366     -100.818        0.44999999     97670.155    
      4900   298.85062      13676.82      -1078.252      -433.9001       1832.7268      17406.989     -3951.9921     -98.751577      0.44999999     97670.155    
      5000   298.33679      13788.585     -1090.6422     -366.51354      1791.5998      17484.196     -3934.2022     -95.853633      0.44999999     97670.155    
      5100   303.53584      13646.931     -1101.0706     -421.22287      1803.8913      17402.608     -3930.9985     -106.27574      0.44999999     97670.155    
      5200   299.72614      13799.071     -1048.6838     -330.00118      1822.1807      17408.614     -3950.396      -102.64263      0.44999999     97670.155    
      5300   298.94867      13834.412     -1073.5513     -366.54957      1829.5988      17397.669     -3860.4924     -92.262295      0.44999999     97670.155    
      5400   300.48471      13812.238     -1056.228      -288.21434      1812.8709      17346.18      -3904.8687     -97.502108      0.44999999     97670.155    
      5500   293.37564      13710.599     -1085.2329     -375.15586      1825.7299      17335.897     -3889.2481     -101.39156      0.44999999     97670.155    
      5600   295.27626      13726.331     -1089.3727     -338.81225      1788.6611      17375.221     -3912.8802     -96.485858      0.44999999     97670.155    
      5700   302.90031      13639.42      -1087.6175     -441.60239      1773.0438      17413.291     -3925.9941     -91.701324      0.44999999     97670.155    
      5800   295.87745      13592.019     -1092.7056     -414.76336      1791.3004      17321.436     -3920.0116     -93.237025      0.44999999     97670.155    
      5900   300.26684      13522.051     -1115.5985     -462.54732      1778.3539      17331.054     -3907.2049     -102.00592      0.44999999     97670.155    
      6000   301.78092      13604.088     -1081.3624     -434.48445      1741.5722      17350.379     -3874.1415     -97.875447      0.44999999     97670.155    
      6100   298.19662      13736.567     -1111.3173     -314.63566      1837.2266      17334.833     -3912.0454     -97.494108      0.44999999     97670.155    
      6200   300.30092      13667.875     -1109.438      -352.53334      1795.9512      17419.7       -3992.5141     -93.290806      0.44999999     97670.155    
      6300   302.42184      13661.442     -1098.6347     -431.57062      1810.766       17369.182     -3885.1221     -103.17853      0.44999999     97670.155    
      6400   304.20806      13687.45      -1079.3216     -421.26316      1830.1971      17368.201     -3913.4423     -96.920524      0.44999999     97670.155    
      6500   300.35703      13770.857     -1088.7129     -331.77094      1834.5773      17388.456     -3928.2917     -103.40054      0.44999999     97670.155    
      6600   298.84533      13600.63      -1112.0835     -377.28566      1785.2743      17389.624     -3992.8723     -92.027229      0.44999999     97670.155    
      6700   296.67598      13592.783     -1137.9203     -398.19364      1851.7058      17356.453     -3982.5914     -96.670927      0.44999999     97670.155    
      6800   298.93514      13677.459     -1097.6808     -343.43562      1804.1903      17367.537     -3948.1935     -104.95777      0.44999999     97670.155    
      6900   303.54377      13639.573     -1129.3918     -482.7658       1843.7766      17453.175     -3946.971      -98.249535      0.44999999     97670.155    
      7000   301.38535      13623.697     -1108.5862     -423.60247      1853.3163      17345.217     -3948.7561     -93.89233       0.44999999     97670.155    
      7100   298.4038       13631.776     -1095.059      -415.62408      1811.4563      17396.979     -3967.1838     -98.792884      0.44999999     97670.155    
      7200   300.87753      13668.866     -1107.1189     -393.4001       1803.4056      17328.059     -3871.1788     -90.900789      0.44999999     97670.155    
      7300   297.26815      13756.717     -1102.3507     -267.86873      1790.3462      17402.903     -3966.7682     -99.54437       0.44999999     97670.155    
      7400   301.1849       13732.219     -1112.5459     -333.96158      1784.0236      17472.801     -3980.7079     -97.390014      0.44999999     97670.155    
      7500   300.54451      13654.3       -1105.8154     -379.62022      1832.2339      17258.076     -3852.1123     -98.462458      0.44999999     97670.155    
      7600   302.53431      13700.243     -1089.3132     -350.05752      1782.3582      17394.77      -3933.3988     -104.11608      0.44999999     97670.155    
      7700   299.64084      13576.993     -1123.2328     -402.60332      1791.053       17282.642     -3869.7533     -101.11211      0.44999999     97670.155    
      7800   300.73396      13460.307     -1128.9584     -508.25247      1814.8171      17352.373     -3965.7244     -103.94747      0.44999999     97670.155    
      7900   292.74245      13470.409     -1124.5267     -431.24817      1818.1704      17282.816     -3972.5397     -102.26346      0.44999999     97670.155    
      8000   299.29387      13509.666     -1128.6969     -403.00582      1832.1489      17261.903     -3956.4482     -96.234902      0.44999999     97670.155    
      8100   304.57727      13601.121     -1113.6021     -443.90611      1865.0373      17374.402     -3978.2269     -102.58318      0.44999999     97670.155    
      8200   301.62676      13545.51      -1110.0448     -470.09312      1811.5924      17368.928     -3960.03       -94.842654      0.44999999     97670.155    
      8300   301.31961      13525.159     -1145.901      -478.55306      1823.3437      17351.991     -3933.522      -92.199572      0.44999999     97670.155    
      8400   299.87977      13458.36      -1122.6964     -477.87093      1763.0971      17319.961     -3926.3458     -97.784266      0.44999999     97670.155    
      8500   301.69705      13460.852     -1109.8421     -540.36267      1812.5746      17334.264     -3928.9037     -106.87902      0.44999999     97670.155    
      8600   294.98807      13549.886     -1131.9795     -448.39121      1828.4136      17333.124     -3930.0317     -101.24976      0.44999999     97670.155    
      8700   301.47768      13421.432     -1126.6273     -533.77357      1840.7255      17311.395     -3969.8266     -100.46086      0.44999999     97670.155    
      8800   302.61255      13462.379     -1116.7082     -517.47654      1777.9603      17398.919     -3984.1603     -96.155374      0.44999999     97670.155    
      8900   302.18068      13554.855     -1135.3458     -527.99815      1797.7597      17508.276     -3979.7171     -108.11997      0.44999999     97670.155    
      9000   296.56601      13560.75      -1117.2152     -459.54113      1793.4854      17409.041     -3967.4418     -97.577923      0.44999999     97670.155    
      9100   297.35982      13523.841     -1088.4233     -455.70463      1783.2752      17333.091     -3948.378      -100.01917      0.44999999     97670.155    
      9200   301.92808      13518.032     -1115.7079     -460.24833      1790.896       17322.639     -3919.9396     -99.606939      0.44999999     97670.155    
      9300   303.97592      13566.54      -1122.2222     -469.35056      1779.4573      17426.208     -3949.9396     -97.612771      0.44999999     97670.155    
      9400   297.58765      13625.213     -1106.9774     -413.58809      1799.0787      17390.832     -3946.3836     -97.748892      0.44999999     97670.155    
      9500   296.84773      13557.266     -1141.385      -412.4862       1794.6897      17318.015     -3900.3725     -101.19497      0.44999999     97670.155    
      9600   295.59428      13497.553     -1149.2354     -386.68591      1794.3161      17248.031     -3908.3277     -100.54558      0.44999999     97670.155    
      9700   298.7748       13512.225     -1117.3601     -353.23658      1727.5466      17332.596     -3975.078      -102.24295      0.44999999     97670.155    
      9800   299.76101      13561.381     -1123.9446     -360.75494      1824.3568      17315.399     -3991.0359     -102.63942      0.44999999     97670.155    
      9900   302.97674      13617.474     -1117.1585     -380.70321      1792.3628      17361.112     -3934.273      -103.8656       0.44999999     97670.155    
     10000   301.68256      13660.505     -1158.3859     -340.41511      1791.9169      17391.277     -3918.2623     -105.62529      0.44999999     97670.155    
     10100   295.15762      13612.879     -1126.5155     -372.5434       1792.6204      17392.676     -3970.922      -102.43664      0.44999999     97670.155    
     10200   297.11659      13604.085     -1095.7419     -394.34173      1808.9973      17304.17      -3915.0166     -103.983        0.44999999     97670.155    
     10300   300.41098      13483.039     -1115.1381     -449.55059      1729.301       17342.153     -3927.1322     -96.593728      0.44999999     97670.155    
     10400   303.9033       13394.251     -1117.4222     -498.01035      1776.4113      17315         -3985.8469     -95.880885      0.44999999     97670.155    
     10500   297.32504      13538.31      -1101.2589     -504.59665      1791.3604      17370.574     -3911.2016     -106.56736      0.44999999     97670.155    
     10600   296.64756      13457.429     -1117.6254     -568.32336      1815.8505      17380.113     -3958.2        -94.386238      0.44999999     97670.155    
     10700   305.33817      13360.68      -1113.9074     -541.4961       1804.6941      17338.893     -4016.5578     -110.94646      0.44999999     97670.155    
     10800   297.24726      13384.569     -1141.3285     -513.63887      1748.195       17310.356     -3920.6066     -98.407376      0.44999999     97670.155    
     10900   305.32732      13530.611     -1145.3318     -411.44884      1834.119       17266.267     -3910.1791     -102.81577      0.44999999     97670.155    
     11000   300.59124      13539.479     -1112.0909     -496.62348      1820.0004      17409.95      -3983.7717     -97.984748      0.44999999     97670.155    
     11100   299.97405      13505.234     -1109.9639     -451.24058      1793.7551      17299.199     -3930.807      -95.709378      0.44999999     97670.155    
     11200   301.08584      13556.686     -1139.0128     -389.91872      1777.2889      17344.299     -3928.0704     -107.89919      0.44999999     97670.155    
     11300   294.42738      13552.818     -1145.3597     -436.71225      1735.1566      17449.776     -3951.5959     -98.447042      0.44999999     97670.155    
     11400   301.26919      13412.151     -1165.7295     -517.67517      1765.5187      17322.915     -3895.9832     -96.894712      0.44999999     97670.155    
     11500   298.4601       13494.119     -1138.9038     -441.0839       1809.3817      17305.666     -3936.0681     -104.87317      0.44999999     97670.155    
     11600   297.33202      13464.865     -1148.6909     -465.56676      1776.8309      17249.423     -3846.9674     -100.16365      0.44999999     97670.155    
     11700   298.15101      13446.959     -1137.2765     -468.73264      1775.1795      17298.964     -3913.346      -107.82908      0.44999999     97670.155    
     11800   298.77655      13443.885     -1164.9236     -483.68141      1820.5428      17323.027     -3949.8076     -101.27227      0.44999999     97670.155    
     11900   302.24484      13379.922     -1155.6621     -485.65258      1774.3743      17294.306     -3962.206      -85.237506      0.44999999     97670.155    
     12000   306.62715      13428.958     -1128.704      -582.02347      1807.3348      17387.243     -3953.757      -101.13528      0.44999999     97670.155    
     12100   296.38689      13457.452     -1112.6949     -507.36771      1795.3509      17327.697     -3945.9575     -99.575368      0.44999999     97670.155    
     12200   297.5299       13492.957     -1161.1817     -442.97281      1789.3459      17321.999     -3909.0832     -105.1501       0.44999999     97670.155    
     12300   302.81754      13461.306     -1142.5221     -428.17297      1828.9467      17204.875     -3902.8845     -98.936014      0.44999999     97670.155    
     12400   309.19437      13485.055     -1160.4575     -456.01356      1804.2588      17343.699     -3944.095      -102.33692      0.44999999     97670.155    
     12500   304.22797      13521.827     -1135.0263     -505.11802      1818.8161      17341.218     -3889.3771     -108.68618      0.44999999     97670.155    
     12600   304.38312      13500.832     -1151.6669     -449.49281      1807.8344      17339.518     -3955.5202     -89.840877      0.44999999     97670.155    
     12700   302.32953      13412.55      -1135.8794     -490.02647      1731.1366      17331.942     -3927.8318     -96.790656      0.44999999     97670.155    
     12800   303.43601      13514.134     -1146.2474     -457.16262      1772.1837      17318.846     -3873.0662     -100.41926      0.44999999     97670.155    
     12900   296.76051      13599.282     -1159.0824     -337.12442      1792.2112      17362.44      -3957.5776     -101.58519      0.44999999     97670.155    
     13000   300.41321      13467.832     -1147.4721     -456.28751      1784.6733      17306.191     -3916.7917     -102.48051      0.44999999     97670.155    
     13100   299.93791      13699.577     -1156.0842     -397.51855      1866.2581      17371.884     -3885.322      -99.640223      0.44999999     97670.155    
     13200   304.80469      13592.839     -1153.7165     -396.67606      1772.1294      17387.967     -3930.544      -86.321019      0.44999999     97670.155    
     13300   300.00377      13511.582     -1136.7801     -433.03812      1775.8286      17317.231     -3907.2106     -104.44805      0.44999999     97670.155    
     13400   299.48667      13476.166     -1117.7605     -452.52529      1786.1796      17245.648     -3884.1395     -101.23669      0.44999999     97670.155    
     13500   304.13051      13476.423     -1157.7426     -439.76805      1799.5886      17316.735     -3947.989      -94.401558      0.44999999     97670.155    
     13600   300.35465      13546.613     -1143.5495     -459.46566      1852.7463      17358.675     -3963.5304     -98.262424      0.44999999     97670.155    
     13700   296.7575       13560.951     -1172.5393     -373.53649      1792.5522      17380.398     -3968.4165     -97.506057      0.44999999     97670.155    
     13800   304.26387      13461.486     -1144.2215     -472.15657      1848.7228      17330.917     -3997.0462     -104.72889      0.44999999     97670.155    
     13900   297.45341      13553.11      -1158.0618     -383.35507      1800.1859      17399.343     -4003.0293     -101.97266      0.44999999     97670.155    
     14000   298.23573      13474.316     -1152.0052     -402.29835      1803.3059      17216.573     -3893.1192     -98.139526      0.44999999     97670.155    
     14100   297.33563      13525.383     -1182.3201     -364.60139      1837.8715      17297.078     -3955.268      -107.37656      0.44999999     97670.155    
     14200   302.82109      13516.125     -1145.6367     -469.9919       1817.4048      17352.62      -3937.0011     -101.27072      0.44999999     97670.155    
     14300   299.54469      13406.07      -1169.1511     -572.32578      1794.1577      17400.074     -3941.0722     -105.61248      0.44999999     97670.155    
     14400   303.30962      13467.998     -1166.1436     -506.731        1860.4974      17262.095     -3880.7861     -100.93411      0.44999999     97670.155    
     14500   297.10176      13382.778     -1188.6266     -536.83082      1804.4345      17314.39      -3912.8509     -97.738288      0.44999999     97670.155    
     14600   302.60079      13348.038     -1162.6903     -508.06396      1801.2711      17329.41      -3999.0793     -112.80925      0.44999999     97670.155    
     14700   297.6898       13557.938     -1147.4494     -460.05893      1841.6723      17353.077     -3926.1078     -103.19531      0.44999999     97670.155    
     14800   298.47554      13441.446     -1142.2356     -421.14906      1780.44        17267.689     -3935.9921     -107.30653      0.44999999     97670.155    
     14900   295.69022      13608.2       -1138.1716     -434.59322      1860.9205      17366.961     -3959.0164     -87.900383      0.44999999     97670.155    
     15000   291.85639      13509.72      -1152.0158     -445.63222      1849.911       17297.97      -3938.5776     -101.93485      0.44999999     97670.155    
     15100   299.63691      13449.611     -1161.0596     -400.05926      1754.9986      17310.052     -3950.1419     -104.17909      0.44999999     97670.155    
     15200   301.11807      13449.962     -1135.9559     -429.07704      1777.0424      17288.467     -3947.8641     -102.64997      0.44999999     97670.155    
     15300   296.31697      13521.886     -1191.7024     -470.48219      1818.4367      17391.249     -3931.3528     -94.262495      0.44999999     97670.155    
     15400   295.78255      13432.552     -1185.7937     -437.81215      1805.7561      17327.46      -3974.4536     -102.60483      0.44999999     97670.155    
     15500   293.58907      13365.489     -1163.0693     -524.30766      1737.0479      17352.473     -3939.2654     -97.389543      0.44999999     97670.155    
     15600   304.97407      13317.173     -1175.2367     -524.67867      1735.7484      17368.828     -3991.5793     -95.908559      0.44999999     97670.155    
     15700   293.47788      13665.555     -1176.63       -377.95897      1845.6022      17428.305     -3961.0226     -92.740095      0.44999999     97670.155    
     15800   301.82752      13445.099     -1179.0973     -523.33096      1780.076       17411.335     -3931.8073     -112.07564      0.44999999     97670.155    
     15900   302.59317      13486.695     -1183.717      -453.26882      1763.1721      17378.678     -3927.136      -91.033333      0.44999999     97670.155    
     16000   296.76666      13450.191     -1194.1226     -452.52861      1834.975       17332.735     -3966.4642     -104.4031       0.44999999     97670.155    
     16100   302.15057      13517.416     -1176.5856     -387.92325      1773.3514      17387.747     -3967.3251     -111.84772      0.44999999     97670.155    
     16200   297.22056      13588.998     -1169.1146     -364.09024      1806.3321      17410.379     -3990.9952     -103.51293      0.44999999     97670.155    
     16300   298.74167      13609.448     -1164.122      -305.90628      1817.4013      17273.927     -3911.3032     -100.54887      0.44999999     97670.155    
     16400   301.8103       13563.336     -1167.481      -411.57778      1824.5322      17392.865     -3964.2656     -110.73631      0.44999999     97670.155    
     16500   304.34135      13394.947     -1192.4325     -409.53755      1808.6922      17305.713     -4009.1845     -108.30356      0.44999999     97670.155    
     16600   295.92594      13449.38      -1197.3829     -436.25401      1779.6135      17333.23      -3935.2        -94.626945      0.44999999     97670.155    
     16700   297.10947      13427.189     -1181.4358     -467.11228      1767.3803      17307.481     -3890.217      -108.90713      0.44999999     97670.155    
     16800   294.71611      13626.149     -1160.4833     -323.88358      1835.4778      17291.074     -3907.425      -108.61133      0.44999999     97670.155    
     16900   306.05377      13507.163     -1173.5357     -412.17364      1745.3629      17365.332     -3911.8001     -106.0225       0.44999999     97670.155    
     17000   296.8687       13478.938     -1179.4512     -427.63953      1772.1458      17391.161     -3974.4334     -102.84553      0.44999999     97670.155    
     17100   297.89907      13480.429     -1191.5829     -431.03607      1825.3167      17354.892     -3970.7902     -106.37044      0.44999999     97670.155    
     17200   298.76096      13544.44      -1174.0265     -384.52239      1831.3657      17312.704     -3947.6675     -93.413157      0.44999999     97670.155    
     17300   300.24309      13633.079     -1168.9332     -336.93561      1829.9816      17305.345     -3886.8421     -109.53651      0.44999999     97670.155    
     17400   300.51431      13579.075     -1158.8763     -382.64368      1835.0885      17288.307     -3910.5752     -92.226061      0.44999999     97670.155    
     17500   297.14798      13476.292     -1180.1198     -444.56896      1791.6113      17287.038     -3870.7689     -106.89939      0.44999999     97670.155    
     17600   305.18023      13458.709     -1176.9403     -386.7021       1797.6341      17271.174     -3938.178      -108.27836      0.44999999     97670.155    
     17700   294.98771      13423.672     -1150.9339     -481.63691      1790.8441      17298.997     -3921.8824     -111.71621      0.44999999     97670.155    
     17800   301.26289      13439.707     -1167.4234     -426.05625      1739.5238      17352.794     -3953.7588     -105.37186      0.44999999     97670.155    
     17900   307.82957      13353.31      -1183.0328     -496.23543      1805.507       17280.494     -3943.043      -110.37986      0.44999999     97670.155    
     18000   297.48525      13475.788     -1177.493      -502.18421      1811.6684      17416.43      -3969.4735     -103.15921      0.44999999     97670.155    
     18100   307.06804      13549.598     -1152.0087     -431.42779      1865.4079      17314.445     -3951.8051     -95.013837      0.44999999     97670.155    
     18200   308.18145      13381.636     -1176.1522     -376.49003      1775.3995      17152.072     -3901.067      -92.126122      0.44999999     97670.155    
     18300   300.16715      13523.352     -1176.2672     -337.5822       1762.9419      17289.767     -3915.6069     -99.901073      0.44999999     97670.155    
     18400   296.53277      13448.98      -1155.3802     -412.82674      1783.2091      17334.89      -3994.1701     -106.74214      0.44999999     97670.155    
     18500   304.31862      13556.381     -1155.9426     -435.26178      1832.4112      17313.092     -3896.9388     -100.97974      0.44999999     97670.155    
     18600   299.4734       13499.507     -1158.3109     -474.52284      1784.4538      17391.076     -3939.4877     -103.70168      0.44999999     97670.155    
     18700   300.74746      13423.081     -1168.1745     -463.85083      1789.6357      17361.526     -3997.6294     -98.426008      0.44999999     97670.155    
     18800   296.72912      13411.847     -1145.2536     -455.96407      1780.3059      17278.35      -3931.8546     -113.73698      0.44999999     97670.155    
     18900   290.95655      13389.591     -1181.9992     -468.42418      1851.0714      17240.701     -3960.2581     -91.499569      0.44999999     97670.155    
     19000   294.82917      13237.46      -1166.1988     -589.5832       1834.1352      17230.864     -3973.7567     -98.000463      0.44999999     97670.155    
     19100   299.94074      13397.354     -1169.007      -449.21799      1786.7944      17300.171     -3963.0356     -108.3503       0.44999999     97670.155    
     19200   303.65795      13375.787     -1169.3229     -488.41059      1767.2816      17417.742     -4047.2142     -104.28921      0.44999999     97670.155    
     19300   299.43954      13524.815     -1175.4336     -426.68033      1839.6259      17329.328     -3950.9664     -91.057583      0.44999999     97670.155    
     19400   309.05059      13424.657     -1173.6917     -539.75007      1796.3799      17365.807     -3925.1668     -98.92187       0.44999999     97670.155    
     19500   301.59401      13441.729     -1192.4582     -470.03286      1771.9471      17357.607     -3920.2478     -105.08652      0.44999999     97670.155    
     19600   299.34348      13401.169     -1175.3881     -474.6432       1788.3057      17353.225     -3981.8941     -108.43626      0.44999999     97670.155    
     19700   300.08967      13490.527     -1202.6154     -410.8829       1847.108       17333.924     -3970.9763     -106.03071      0.44999999     97670.155    
     19800   305.11066      13548.298     -1194.2299     -320.47566      1778.7896      17370.896     -3981.0409     -105.64164      0.44999999     97670.155    
     19900   302.26935      13535.35      -1173.8485     -431.36512      1844.9544      17314.859     -3918.3321     -100.91803      0.44999999     97670.155    
     20000   300.87487      13499.125     -1200.5489     -449.61851      1808.3671      17410.433     -3971.6723     -97.835417      0.44999999     97670.155    
     20041   297.25208      13588.362     -1188.9797     -355.73591      1813.5765      17339.456     -3921.0991     -98.856338      0.44999999     97670.155    
Loop time of 173.365 on 6 procs for 20000 steps with 4984 atoms

Performance: 9.967 ns/day, 2.408 hours/ns, 115.364 timesteps/s, 574.972 katom-step/s
98.5% CPU use with 6 MPI tasks x no OpenMP threads

MPI task timing breakdown:
Section |  min time  |  avg time  |  max time  |%varavg| %total
---------------------------------------------------------------
Pair    | 26.058     | 42.665     | 60.578     | 176.7 | 24.61
Bond    | 37.39      | 50.806     | 69.598     | 148.5 | 29.31
Neigh   | 5.2991     | 5.3135     | 5.3495     |   0.8 |  3.06
Comm    | 29.043     | 66.095     | 96.978     | 265.3 | 38.12
Output  | 0.21984    | 0.24072    | 0.27393    |   3.6 |  0.14
Modify  | 0.75551    | 1.0016     | 1.2355     |  16.9 |  0.58
Other   |            | 7.243      |            |       |  4.18

Nlocal:        830.667 ave        1079 max         605 min
Histogram: 1 1 0 0 1 1 1 0 0 1
Nghost:        6053.67 ave        6325 max        5762 min
Histogram: 1 0 0 2 0 0 1 0 1 1
Neighs:         165721 ave      239767 max      103544 min
Histogram: 1 1 0 1 1 0 0 1 0 1

Total # of neighbors = 994326
Ave neighs/atom = 199.50361
Ave special neighs/atom = 10.44382
Neighbor list builds = 653
Dangerous builds = 0
unfix Langevin
unfix moveLimit


fix 		relax all npt temp 300.0 300.0 100 iso 1.0 1.0 1000
run 10000
Generated 28 of 28 mixed pair_coeff terms from sixthpower/geometric mixing rule
Per MPI rank memory allocation (min/avg/max) = 27.5 | 27.64 | 27.9 Mbytes
   Step          Temp          PotEng         E_vdwl         E_coul         E_bond        E_angle        E_dihed        E_impro        Density         Volume    
     20041   297.25208      13588.362     -1188.9797     -355.73591      1813.5765      17339.456     -3921.0991     -98.856338      0.44999999     97670.155    
     20100   294.67774      13613.891     -1180.5921     -383.96721      1802.346       17403.414     -3917.2392     -110.07102      0.45016057     97635.315    
     20200   300.9649       13448.231     -1213.1671     -424.67572      1784.281       17371.218     -3973.937      -95.48818       0.45142369     97362.123    
     20300   296.99701      13286.378     -1225.2416     -519.29597      1690.4093      17336.173     -3882.3138     -113.35335      0.45381416     96849.267    
     20400   297.62037      13244.232     -1238.662      -506.98829      1767.5075      17277.248     -3953.5422     -101.33027      0.45753102     96062.491    
     20500   301.42655      13142.625     -1254.9662     -559.76563      1715.9715      17236.695     -3888.7191     -106.59118      0.46180881     95172.652    
     20600   306.01241      13260.923     -1245.4143     -470.01975      1753.0263      17273.395     -3939.9275     -110.13694      0.4663803      94239.764    
     20700   307.73167      13277.066     -1263.8411     -541.11064      1738.7167      17395.257     -3952.728      -99.227855      0.4692414      93665.157    
     20800   305.0025       13338.717     -1248.1592     -504.44023      1785.5116      17320.76      -3909.6848     -105.27036      0.4714198      93232.335    
     20900   303.72895      13321.203     -1277.9148     -463.07497      1762.6526      17391.033     -3987.448      -104.04436      0.47304072     92912.866    
     21000   300.64045      13264.904     -1282.7633     -501.23349      1781.6522      17331.012     -3954.5291     -109.23387      0.47537481     92456.664    
     21100   299.44053      13086.593     -1316.293      -633.72374      1801.9994      17259.592     -3922.5072     -102.47405      0.47781646     91984.209    
     21200   297.35456      13142.603     -1272.0502     -567.64884      1731.0099      17289.779     -3938.5385     -99.948765      0.48098444     91378.359    
     21300   299.09754      13208.481     -1275.5201     -490.2509       1773.6809      17184.071     -3882.752      -100.7479       0.48453681     90708.421    
     21400   296.62483      13341.218     -1276.9341     -490.60233      1819.5326      17324.987     -3940.8728     -94.89207       0.48858698     89956.489    
     21500   304.09111      13322.218     -1301.0708     -463.8681       1815.9414      17345.876     -3974.2263     -100.43391      0.49258179     89226.947    
     21600   299.28532      13373.31      -1286.3212     -439.26741      1775.9985      17350.535     -3926.692      -100.94312      0.49636905     88546.152    
     21700   299.27118      13358.113     -1309.3727     -360.26503      1746.394       17338.89      -3951.5437     -105.98985      0.49993311     87914.898    
     21800   294.7941       13296.615     -1332.2599     -478.39313      1785.4556      17405.218     -3977.0506     -106.35456      0.50343087     87304.079    
     21900   299.35576      13286.838     -1354.1199     -399.97458      1779.9669      17294.29      -3923.1298     -110.19386      0.50662335     86753.935    
     22000   301.73405      13225.595     -1327.5559     -415.92979      1766.32        17264.831     -3965.6727     -96.397608      0.50953045     86258.965    
     22100   297.64389      13037.836     -1363.8168     -567.79695      1781.7024      17210.46      -3913.072      -109.64065      0.51231569     85790.012    
     22200   292.7871       13075.379     -1387.863      -515.12449      1739.8129      17313.077     -3972.4839     -102.03948      0.51504777     85334.936    
     22300   299.15617      13183.758     -1370.3346     -409.26072      1709.7041      17287.04      -3923.4094     -109.9813       0.51808376     84834.87     
     22400   301.36394      13173.292     -1376.1238     -456.56067      1755.6584      17273.172     -3928.2522     -94.601393      0.52071505     84406.181    
     22500   305.33216      13107.4       -1406.1305     -472.57023      1751.5256      17278.299     -3934.9572     -108.7667       0.52337876     83976.6      
     22600   300.70747      13127.146     -1348.8283     -472.79421      1738.3742      17287.552     -3976.9326     -100.22521      0.52554684     83630.165    
     22700   295.3279       13139.1       -1386.2956     -464.38466      1716.189       17321.074     -3941.6347     -105.84802      0.52718357     83370.521    
     22800   293.53134      13145.557     -1392.8391     -387.3861       1702.0803      17245.169     -3924.3062     -97.160735      0.52893894     83093.842    
     22900   299.42581      13046.084     -1398.3402     -452.70662      1726.3951      17185.243     -3910.5177     -103.9896       0.53116122     82746.193    
     23000   302.9058       13136.75      -1390.4786     -460.31415      1754.8032      17242.929     -3908.6065     -101.58294      0.5338213      82333.861    
     23100   305.55073      13017.202     -1413.87       -589.00703      1772.5245      17235.494     -3889.1721     -98.767483      0.53639191     81939.284    
     23200   302.57518      13142.502     -1408.6314     -485.89818      1749.762       17374.586     -3983.2947     -104.02191      0.53889742     81558.321    
     23300   297.79305      13058.397     -1384.0647     -541.21314      1802.0034      17235.749     -3954.9606     -99.116862      0.54164535     81144.552    
     23400   299.12563      12904.308     -1406.0197     -652.15471      1773.6022      17201.967     -3920.0579     -93.028302      0.54435514     80740.615    
     23500   296.01672      13182.658     -1417.5099     -466.12786      1789.5499      17333.9       -3962.0158     -95.13806       0.54774966     80240.248    
     23600   299.52603      13169.745     -1416.2697     -486.11723      1776.3048      17357.482     -3964.8977     -96.75719       0.551237       79732.618    
     23700   300.15537      13108.146     -1421.4286     -536.07989      1759.8106      17286.609     -3879.2512     -101.5142       0.55484773     79213.749    
     23800   300.37584      13128.015     -1458.543      -491.23902      1754.113       17357.348     -3937.1342     -96.529846      0.55791965     78777.596    
     23900   298.91013      13199.197     -1405.9031     -396.3778       1738.3209      17331.488     -3964.6205     -103.71087      0.56144158     78283.423    
     24000   297.36377      13033.917     -1427.0478     -481.4204       1766.1385      17238.222     -3955.9991     -105.97558      0.56428668     77888.723    
     24100   299.21132      12892.903     -1431.5097     -566.80041      1679.3762      17296.153     -3975.5274     -108.7879       0.56663265     77566.248    
     24200   305.59008      13018.396     -1450.5988     -461.26768      1689.145       17311.833     -3967.7263     -102.98965      0.56814364     77359.96     
     24300   303.04723      13093.942     -1468.7194     -498.38662      1765.2484      17336.498     -3938.0747     -102.62375      0.57045655     77046.304    
     24400   299.20404      13133.732     -1435.2935     -491.58444      1761.3713      17324.167     -3916.4809     -108.447        0.57297034     76708.28     
     24500   298.70821      13117.467     -1431.3802     -477.35199      1759.3303      17316.86      -3941.5858     -108.40484      0.57520963     76409.654    
     24600   299.19389      13026.584     -1466.7399     -495.66064      1740.3011      17294.761     -3946.2664     -99.811082      0.5775935      76094.293    
     24700   295.41576      13048.464     -1476.8635     -425.52727      1739.3508      17236.253     -3915.6849     -109.06364      0.58050362     75712.824    
     24800   292.00669      13116.58      -1459.7507     -410.56738      1747.1213      17333.289     -3992.9892     -100.52316      0.58389704     75272.806    
     24900   303.15671      13079.036     -1502.3568     -418.74426      1786.3199      17292.917     -3983.2393     -95.860412      0.58772101     74783.049    
     25000   299.86625      13073.817     -1449.6178     -514.48414      1777.0146      17312.437     -3947.0705     -104.46166      0.5914969      74305.662    
     25100   303.53237      13010.636     -1493.3781     -488.91806      1794.696       17261.364     -3963.6234     -99.504815      0.59461656     73915.817    
     25200   299.44672      12890.416     -1506.7993     -565.15427      1749.5096      17323.046     -4010.535      -99.651486      0.59849756     73436.505    
     25300   293.64964      12985.005     -1508.0041     -492.37714      1693.9242      17329.062     -3929.0745     -108.52529      0.60175138     73039.415    
     25400   296.36493      13033.465     -1505.894      -454.44454      1709.3142      17335.984     -3944.8142     -106.67978      0.60482031     72668.804    
     25500   303.9143       12878.015     -1525.5669     -558.56926      1691.5255      17383.904     -4015.9034     -97.374383      0.60753881     72343.64     
     25600   300.45086      12918.638     -1521.6856     -566.14196      1712.5727      17317.126     -3919.4308     -103.80203      0.61066251     71973.583    
     25700   295.06505      13023.463     -1519.1486     -492.57003      1762.9021      17400.126     -4032.619      -95.226743      0.61391292     71592.514    
     25800   296.05391      13016.92      -1522.8845     -380.09682      1695.7141      17293.305     -3970.3723     -98.745439      0.6173872      71189.634    
     25900   297.47349      13066.67      -1505.4564     -326.2348       1737.1604      17210.043     -3937.2085     -111.63398      0.6206407      70816.446    
     26000   299.10414      12888.045     -1519.8896     -609.94802      1759.2841      17360.646     -3995.8007     -106.24631      0.62310981     70535.832    
     26100   299.89957      13071.596     -1514.686      -418.53575      1741.2112      17291.969     -3923.2358     -105.12716      0.62541367     70275.997    
     26200   299.64326      13052.966     -1537.4286     -390.46307      1752.0475      17296.819     -3967.3161     -100.69342      0.62728886     70065.917    
     26300   294.67866      13196.269     -1550.9062     -320.89503      1731.7476      17403.835     -3972.7299     -94.782118      0.62869545     69909.157    
     26400   297.78428      12999.213     -1554.8244     -456.45469      1763.1613      17290.707     -3937.7399     -105.63552      0.63017196     69745.358    
     26500   294.68186      12934.084     -1552.3519     -525.07698      1754.4092      17314.072     -3956.4938     -100.47393      0.63296501     69437.596    
     26600   298.73711      12886.866     -1556.0904     -570.54794      1711.3897      17351.687     -3951.2385     -98.334041      0.63577949     69130.208    
     26700   304.25874      12799.153     -1576.2098     -648.30429      1718.2056      17335.004     -3926.2144     -103.32763      0.63895114     68787.057    
     26800   299.79295      12941.069     -1556.7295     -578.8892       1764.2284      17355.88      -3940.5812     -102.83912      0.6423005      68428.358    
     26900   298.54105      12851.154     -1619.8609     -561.11876      1751.4599      17286.112     -3897.7016     -107.73677      0.64531858     68108.327    
     27000   294.21837      12843.204     -1623.5425     -551.17205      1738.3597      17307.671     -3918.8284     -109.2836       0.64893479     67728.791    
     27100   293.954        12894.402     -1610.7511     -514.50403      1750.4887      17352.067     -3979.6782     -103.22031      0.65315033     67291.658    
     27200   301.30408      12802.865     -1594.619      -558.90539      1678.5435      17361.331     -3980.767      -102.71833      0.6572024      66876.762    
     27300   305.06582      12837.267     -1604.8037     -582.56362      1734.5495      17366.344     -3977.7928     -98.465964      0.66013433     66579.735    
     27400   301.98569      12916.577     -1614.0444     -535.48289      1769.795       17313.061     -3913.2602     -103.49154      0.66226339     66365.693    
     27500   300.21634      12851.531     -1625.0946     -458.29791      1688.7172      17341.554     -3994.4222     -100.92562      0.66437796     66154.465    
[...]
     70300   297.0354       9995.2632     -1943.3545     -475.85635      1634.0795      15024.537     -4166.3258     -77.816532      0.84878946     51781.473      21           
     70400   297.33659      159630         408.31761     -535.67702      149073.49      14837.227     -4061.4195     -91.937885      0.84668109     51910.418      22           
     70500   309.06707      10149.076     -1999.4352     -335.97517      1630.6666      15034.506     -4096.8512     -83.835451      0.88861853     49460.559      22           
     70600   304.0345       9934.9355     -1967.3001     -483.49912      1692.7101      14843.323     -4053.921      -96.37755       0.88550959     49634.21       22           
     70700   299.51729      10085.854     -1974.3833     -295.51617      1656.2774      14843.8       -4061.8089     -82.514982      0.88226729     49816.614      22           
     70800   297.9671       9777.6965     -1939.7398     -557.697        1617.3999      14846.352     -4100.5327     -88.085849      0.87839807     50036.049      22           
     70900   300.25943      9701.3592     -1995.4063     -574.20313      1592.8825      14841.94      -4086.3045     -77.54979       0.87363861     50308.638      22           
     71000   301.0758       9800.4844     -1985.5146     -510.08495      1601.3453      14831.803     -4054.9561     -82.107786      0.87006037     50515.539      22           
     71100   299.86713      9901.1713     -1940.7769     -516.4326       1698.621       14844.251     -4102.1243     -82.367173      0.86670661     50711.012      22           
     71200   297.63001      9948.3958     -1952.9841     -520.62049      1659.2546      14945.009     -4098.9996     -83.263726      0.86376815     50883.526      22           
     71300   297.65548      9899.2067     -1981.1615     -543.28281      1657.6557      14910.802     -4060.8509     -83.95616       0.85991612     51111.461      22           
     71400   292.36726      9789.0583     -1923.8972     -600.81767      1630.6077      14921.342     -4155.6662     -82.510399      0.8569901      51285.97       22           
     71500   296.22565      9613.6512     -1971.5073     -704.9837       1665.4882      14819.961     -4111.0168     -84.290454      0.85389042     51472.142      22           
     71600   299.96924      9635.3419     -1968.9777     -703.63826      1616.6386      14909.558     -4135.4827     -82.756427      0.85174988     51601.497      22           
     71700   301.93891      9742.2382     -1924.5577     -646.3781       1643.1608      14819.88      -4068.8338     -81.033036      0.84924487     51753.706      22           
     71800   301.4573       9791.6066     -1945.9956     -635.71226      1671.6698      14878.52      -4090.427      -86.447918      0.84623208     51937.961      22           
     71900   299.12809      9944.5701     -1910.2031     -504.52851      1654.7236      14989.385     -4199.6283     -85.178188      0.8429971      52137.272      22           
     72000   300.8354       9812.8151     -1908.5452     -584.81774      1658.4138      14806.451     -4068.8206     -89.866522      0.8397846      52336.717      22           
     72100   296.01312      9904.4949     -1901.5158     -513.69474      1663.7506      14884.014     -4145.9485     -82.110321      0.83717183     52500.057      22           
     72200   295.19399      334026.37      276.71672     -505.49361      323768.97      14694.202     -4120.1703     -87.846786      0.83525644     52620.449      23           
     72300   303.35611      10090.665     -2002.2505     -506.50433      1691.7148      15100.998     -4111.6119     -81.68045       0.89645845     49028.004      23           
     72400   299.92491      9872.5142     -2006.9338     -351.24439      1663.8088      14815.229     -4157.7615     -90.583886      0.89292029     49222.276      23           
     72500   300.45748      9702.0774     -1965.3465     -437.00069      1580.83        14740.397     -4128.3412     -88.461143      0.88912742     49432.25       23           
     72600   300.8037       9606.43       -1978.9975     -516.05267      1596.1859      14707.768     -4114.1176     -88.356388      0.88445394     49693.452      23           
     72700   297.44492      9701.1285     -1962.1013     -527.83816      1616.1433      14767.889     -4113.0933     -79.870773      0.87974608     49959.38       23           
     72800   302.07836      9667.7706     -1955.0909     -577.48846      1649.0208      14710.8       -4074.3576     -85.113215      0.87567798     50191.475      23           
     72900   301.92267      9632.5967     -1943.2116     -650.81531      1639.4836      14784.474     -4107.1836     -90.150827      0.87179145     50415.233      23           
     73000   294.89625      9633.0756     -1962.5802     -661.07217      1658.7366      14752.257     -4074.6289     -79.636362      0.86783097     50645.31       23           
     73100   295.28689      9526.8607     -1930.4765     -656.65763      1619.2333      14621.322     -4038.4479     -88.112807      0.86468377     50829.645      23           
     73200   295.19216      9760.4751     -1946.818      -467.85655      1604.1974      14776.075     -4130.1567     -74.966291      0.86131529     51028.432      23           
     73300   303.08258      9589.1942     -1938.5676     -578.99588      1585.0289      14720.539     -4120.081      -78.729202      0.85811692     51218.625      23           
     73400   302.77556      9633.8689     -1977.6436     -596.40512      1605.2515      14765.017     -4080.0118     -82.338761      0.85480919     51416.819      23           
     73500   301.37098      9761.5845     -1959.3349     -516.12796      1637.3043      14808.415     -4125.9265     -82.745501      0.85216048     51576.633      23           
     73600   301.64284      9766.948      -1932.4882     -496.77211      1613.7041      14786.826     -4121.6016     -82.720237      0.85023498     51693.438      23           
     73700   301.03024      9741.3015     -1906.3651     -518.97317      1679.2934      14686.367     -4114.5591     -84.461156      0.84780662     51841.502      23           
     73800   296.37168      9604.8739     -1945.2296     -635.85936      1635.1204      14742.513     -4119.1312     -72.539279      0.84484158     52023.444      23           
     73900   299.60623      9432.1167     -1923.4092     -763.3095       1659.8922      14669.344     -4121.0106     -89.389816      0.84262624     52160.219      23           
     74000   300.89755      9636.3803     -1908.9013     -653.65192      1675.4797      14684.763     -4077.6761     -83.63263       0.84103988     52258.602      23           
     74100   303.03895      9787.1591     -1908.81       -530.8864       1635.8193      14771.838     -4096.812      -83.989944      0.83985216     52332.507      23           
     74200   308.69405      9723.9148     -1900.1195     -529.23852      1599.9895      14700.986     -4060.5339     -87.16879       0.83818644     52436.507      23           
     74300   303.09642      9604.7587     -1921.2424     -677.35356      1660.1233      14756.918     -4127.9262     -85.760079      0.83613218     52565.336      23           
     74400   297.66313      9676.983      -1898.2702     -552.44768      1586.9313      14755.902     -4124.9078     -90.224931      0.83392892     52704.215      23           
     74500   300.75784      9630.2043     -1923.8858     -579.29147      1633.5343      14657.694     -4067.0232     -90.82379       0.83211698     52818.978      23           
     74600   301.90949      9816.3673     -1904.3517     -437.30022      1637.8192      14753.255     -4149.8982     -83.156421      0.83093844     52893.893      23           
     74700   299.36054      9799.2281     -1893.8436     -545.29816      1672.8956      14737.257     -4082.3911     -89.391746      0.82976439     52968.733      23           
     74800   296.51036      9893.8704     -1889.1227     -544.76131      1693.4352      14732.615     -4019.5163     -78.77918       0.8279387      53085.535      23           
     74900   302.52567      9735.9119     -1901.8722     -628.45638      1699.0983      14734.294     -4079.8711     -87.281096      0.82737926     53121.429      23           
     75000   302.96253      9828.5395     -1868.5469     -573.96689      1723.6774      14750.354     -4114.4134     -88.56433       0.82748902     53114.383      23           
     75100   300.75259      9864.2428     -1894.505      -516.14792      1662.947       14795.498     -4103.6027     -79.946471      0.82725203     53129.6        23           
     75200   293.92851      9975.5694     -1850.6554     -434.80943      1740.8002      14692.377     -4083.8685     -88.274807      0.82635505     53187.27       23           
     75300   297.45631      9745.2339     -1863.5826     -612.13319      1646.4677      14782.291     -4118.5814     -89.227768      0.82485716     53283.855      23           
     75400   299.39411      9777.0109     -1896.519      -613.81464      1772.856       14733.913     -4142.9665     -76.458237      0.82365078     53361.898      23           
     75500   307.39878      9817.27       -1888.576      -545.11162      1699.4267      14758.559     -4126.3234     -80.704583      0.82394751     53342.681      23           
     75600   298.99062      9973.7619     -1895.6854     -460.36027      1652.9315      14918.434     -4157.9517     -83.606078      0.823278       53386.06       23           
     75700   294.89787      9855.2627     -1908.4596     -500.36092      1708.7873      14755.847     -4111.8317     -88.719702      0.82300225     53403.947      23           
     75800   295.22922      9871.6322     -1898.2473     -489.36         1706.5014      14761.557     -4127.214      -81.604822      0.82329267     53385.109      23           
     75900   300.24784      9789.9025     -1884.6414     -600.56796      1705.0868      14806.081     -4149.0632     -86.992823      0.82359283     53365.653      23           
     76000   300.49198      9895.681      -1847.2936     -555.63937      1675.5207      14839.919     -4124.3691     -92.456827      0.82274477     53420.66       23           
     76100   304.49798      9859.4914     -1888.3772     -507.25634      1675.8176      14737.581     -4082.4547     -75.81942       0.82119938     53521.191      23           
     76200   300.18396      9915.0561     -1860.6564     -437.34815      1691.7349      14696.063     -4082.9024     -91.834394      0.82066151     53556.269      23           
     76300   292.96204      9800.9899     -1870.1826     -506.03068      1692.6377      14688.593     -4121.7752     -82.252649      0.81960705     53625.172      23           
     76400   294.47083      9678.7987     -1874.406      -606.73091      1652.2127      14686.822     -4101.497      -77.602553      0.81926405     53647.623      23           
     76500   297.46493      9733.8054     -1882.3847     -566.12         1745.114       14658.904     -4144.6555     -77.052131      0.8193476      53642.152      23           
     76600   303.66328      9734.4337     -1894.8348     -576.13677      1654.6807      14759.163     -4123.4035     -85.034495      0.81954579     53629.18       23           
     76700   300.60892      9814.1326     -1875.98       -593.31785      1694.933       14837.941     -4168.5078     -80.935677      0.82027007     53581.827      23           
     76800   299.84608      9848.6474     -1853.3058     -574.37945      1767.1455      14738.693     -4146.3614     -83.144068      0.82045116     53570          23           
     76900   300.85056      9722.2305     -1895.3651     -624.34294      1734.3654      14748.48      -4157.2529     -83.653743      0.81980109     53612.479      23           
     77000   294.97083      9759.9165     -1899.8925     -586.54389      1684.2229      14797.707     -4151.8028     -83.774209      0.82032358     53578.332      23           
     77100   295.02235      9799.1371     -1882.3065     -552.67832      1716.3064      14790.015     -4182.6907     -89.509131      0.82131931     53513.376      23           
     77200   300.99643      9793.5485     -1885.0045     -577.87795      1694.9208      14769.216     -4123.4969     -84.208987      0.82147715     53503.094      23           
     77300   304.68557      9792.3752     -1867.2692     -592.27438      1726.4067      14728.757     -4122.8019     -80.442677      0.82073455     53551.503      23           
     77400   298.70623      9770.7984     -1857.9419     -655.15124      1698.9955      14870.628     -4192.0488     -93.683112      0.81993621     53603.644      23           
     77500   299.05133      9577.1561     -1877.1564     -755.42424      1696.1674      14708.031     -4112.8043     -81.65777       0.81899386     53665.321      23           
     77600   295.30527      9804.8234     -1880.8731     -573.22594      1692.4264      14791.171     -4136.0601     -88.614398      0.818195       53717.719      23           
     77700   294.17382      9769.5154     -1874.9739     -672.00353      1752.6571      14763.036     -4118.3701     -80.83018       0.81816199     53719.886      23           
     77800   298.16769      9757.057      -1864.2305     -674.64952      1689.541       14801.828     -4105.7046     -89.72763       0.81828951     53711.515      23           
     77900   304.70952      9775.4679     -1872.2405     -574.8023       1721.2785      14738.17      -4146.3134     -90.624175      0.81891326     53670.603      23           
     78000   300.83378      9710.0265     -1903.2227     -627.56639      1711.893       14805.85      -4188.2766     -88.650436      0.81945306     53635.249      23           
     78100   292.46664      9703.2147     -1846.2619     -649.40789      1669.6327      14686.801     -4072.8238     -84.725283      0.81974362     53616.238      23           
     78200   296.31188      144322.38      1156.4316     -684.76949      133319.31      14777.097     -4167.583      -78.111692      0.81900251     53664.755      24           
     78300   305.15501      9829.0299     -1985.9883     -400.85188      1710.6628      14788.687     -4211.068      -72.411711      0.85971963     51123.142      24           
     78400   303.58887      9655.3836     -1926.2579     -517.23605      1660.3495      14570.03      -4035.371      -96.131034      0.85791114     51230.911      24           
     78500   302.09151      9733.7298     -1948.6384     -394.47464      1656.0291      14593.405     -4092.6721     -79.918773      0.85602276     51343.926      24           
     78600   302.64938      9642.6278     -1968.5886     -500.14781      1707.4046      14604.923     -4116.4204     -84.543467      0.85416037     51455.875      24           
     78700   301.32842      9711.8824     -1966.5292     -465.9716       1665.8456      14644.791     -4070.2739     -95.979569      0.8529364      51529.714      24           
     78800   301.62805      9730.5491     -1956.1952     -485.01345      1686.6483      14626.241     -4059.879      -81.252889      0.85149559     51616.907      24           
     78900   298.44437      9747.8421     -1935.0824     -513.42951      1686.3766      14698.805     -4104.8089     -84.018276      0.85010448     51701.373      24           
     79000   298.09597      9755.4093     -1932.8857     -487.17287      1726.8573      14639.01      -4107.86       -82.539861      0.8481904      51818.046      24           
     79100   298.07103      9480.7176     -1949.268      -702.34698      1650.1292      14708.93      -4140.7262     -86.00007       0.8458415      51961.944      24           
     79200   298.08481      9472.8088     -1922.6051     -647.15331      1640.6134      14628.628     -4135.5929     -91.080728      0.84428693     52057.621      24           
     79300   295.03683      9657.4082     -1925.4609     -490.90422      1647.8337      14662.647     -4142.3249     -94.382013      0.84236602     52176.332      24           
     79400   303.33923      9786.7552     -1944.4945     -390.1573       1681.4161      14682.275     -4160.0479     -82.235827      0.84020276     52310.67       24           
     79500   299.18728      9759.6773     -1901.8096     -502.32873      1758.6434      14582.9       -4086.9256     -90.802422      0.8386062      52410.26       24           
     79600   295.71968      9854.4014     -1894.0327     -411.10476      1742.3141      14605.401     -4102.9133     -85.263427      0.83610657     52566.946      24           
     79700   300.47514      9702.0337     -1939.8667     -438.8544       1667.0839      14668.531     -4163.3225     -91.538012      0.83420904     52686.517      24           
     79800   292.67148      9757.1312     -1942.6825     -429.20079      1691.8134      14620.749     -4091.9529     -91.594776      0.83330911     52743.416      24           
     79900   293.40931      9603.0857     -1903.5668     -566.39764      1689.6988      14566.16      -4104.7835     -78.025409      0.83272051     52780.697      24           
     80000   300.69761      9729.131      -1949.0598     -436.14154      1694.3443      14633.338     -4127.605      -85.745053      0.83194797     52829.709      24           
     80100   298.63057      9736.0543     -1895.9801     -550.69286      1730.6907      14674.055     -4121.9899     -100.0288       0.83131728     52869.789      24           
     80200   302.44337      9754.8427     -1927.8732     -488.44383      1719.8937      14631.954     -4099.8034     -80.884528      0.83045751     52924.524      24           
     80300   302.41967      9576.6773     -1924.85       -604.2473       1674.8606      14613.437     -4098.8455     -83.677489      0.82994196     52957.401      24           
     80400   298.4769       9573.9635     -1910.744      -543.63002      1701.3263      14586.076     -4167.2976     -91.767411      0.82958855     52979.961      24           
     80500   298.82491      9472.4375     -1908.6696     -657.70509      1658.3942      14589.692     -4122.264      -87.009933      0.82923578     53002.499      24           
     80600   295.35465      9660.775      -1924.8791     -586.42556      1693.5443      14709.815     -4149.118      -82.161767      0.82828988     53063.028      24           
     80700   304.0126       9509.7677     -1921.3045     -669.06765      1643.4721      14680.823     -4142.0415     -82.113495      0.82784442     53091.58       24           
     80800   301.45224      9544.9518     -1903.0218     -689.60749      1704.8636      14684.318     -4162.3696     -89.231305      0.82657773     53172.941      24           
     80900   300.74131      9530.3338     -1911.8391     -654.53649      1693.8365      14632.313     -4143.6289     -85.811153      0.82584677     53220.005      24           
     81000   296.71704      9586.0241     -1910.4185     -545.86815      1690.3922      14627.743     -4190.7481     -85.076474      0.82476759     53289.641      24           
     81100   288.32457      9585.6336     -1895.3878     -566.07043      1708.7341      14584.22      -4152.4379     -93.424289      0.82430337     53319.652      24           
     81200   293.74164      9571.8469     -1927.0756     -614.54756      1700.7857      14657.917     -4167.3029     -77.92994       0.82401661     53338.207      24           
     81300   300.47874      9682.1498     -1877.6376     -510.71427      1683.0507      14627.369     -4141.0098     -98.908069      0.82457559     53302.049      24           
     81400   301.11617      9647.6018     -1891.3644     -620.00763      1720.5157      14694.217     -4176.2555     -79.503662      0.82365963     53361.325      24           
     81500   302.9739       9677.9155     -1900.3138     -580.80113      1709.5018      14692.434     -4150.6008     -92.304501      0.82308354