LAMMPS (22 Dec 2022)
WARNING: Using I/O redirection is unreliable with parallel runs. Better to use the -in switch to read input files. (../lammps.cpp:531)
# PREREQUISITES:
#
#     You must use moltemplate.sh to create 3 files:
#        system.data  system.in.init  system.in.settings
#     (Follow the instructions in README_setup.sh,
#      or run the file as a script using ./README_setup.sh)

# ------------------------------- Initialization Section --------------------

units real
atom_style full
pair_style lj/class2/coul/cut 10.0
bond_style class2
angle_style class2
dihedral_style class2
improper_style class2


# ------------------------------- Atom Definition Section -------------------

read_data       "pack_mol.data" extra/bond/per/atom 1 extra/angle/per/atom 12 extra/dihedral/per/atom 12 extra/improper/per/atom 12 extra/special/per/atom 12
Reading data file ...
  orthogonal box = (0 0 0) to (47.259173 47.259173 47.259173)
  1 by 2 by 3 MPI processor grid
  reading atoms ...
  5021 atoms
  scanning bonds ...
  5 = max bonds/atom
  scanning angles ...
  18 = max angles/atom
  scanning dihedrals ...
  46 = max dihedrals/atom
  scanning impropers ...
  16 = max impropers/atom
  reading bonds ...
  5104 bonds
  reading angles ...
  9975 angles
  reading dihedrals ...
  14214 dihedrals
  reading impropers ...
  6384 impropers
Finding 1-2 1-3 1-4 neighbors ...
  special bond factors lj:    0        0        0       
  special bond factors coul:  0        0        0       
     4 = max # of 1-2 neighbors
    12 = max # of 1-3 neighbors
    18 = max # of 1-4 neighbors
    34 = max # of special neighbors
  special bonds CPU = 0.001 seconds
  read_data CPU = 0.084 seconds

include calc.pram

# Masses

mass	1	12.01115	#	c
mass	2	1.00797	#	h
mass	3	1.00797	#	hc
mass	4	15.99940	#	o4e
mass	5	15.99940	#	oc
mass	6	15.99940	#	oh

# Potentials

pair_coeff	1	1	0.05400	4.01000	#	c,c
pair_coeff	2	2	0.02000	2.99500	#	h,h
pair_coeff	3	3	0.02000	2.99500	#	hc,hc
pair_coeff	4	4	0.24000	3.53500	#	o4e,o4e
pair_coeff	5	5	0.24000	3.53500	#	oc,oc
pair_coeff	6	6	0.24000	3.53500	#	oh,oh

# Bond Coeffs

bond_coeff	1	1.53000	299.67000	-501.77000	679.81000	#	c,c
bond_coeff	2	1.10100	345.00000	-691.89000	844.60000	#	c,hc
bond_coeff	3	1.42000	400.39540	-835.19510	1313.01420	#	c,o4e
bond_coeff	4	1.42000	400.39540	-835.19510	1313.01420	#	c,oc
bond_coeff	5	1.42000	400.39540	-835.19510	1313.01420	#	c,oh
bond_coeff	6	0.96000	493.84800	0.00000	0.00000	#	h,oh

# Angle Coeffs

angle_coeff	1	112.67000	39.51600	-7.44300	-9.55830	#	c,c,c
angle_coeff	2	110.77000	41.45300	-10.60400	5.12900	#	c,c,hc
angle_coeff	3	111.27000	54.53810	-8.36420	-13.08380	#	c,c,o4e
angle_coeff	4	111.27000	54.53810	-8.36420	-13.08380	#	c,c,oc
angle_coeff	5	111.27000	54.53810	-8.36420	-13.08380	#	c,c,oh
angle_coeff	6	104.50000	35.74540	-10.00670	-6.27290	#	c,o4e,c
angle_coeff	7	104.50000	35.74540	-10.00670	-6.27290	#	c,oc,c
angle_coeff	8	109.00000	58.50000	0.00000	0.00000	#	c,oh,h
angle_coeff	9	107.66000	39.64100	-12.92100	-2.43180	#	hc,c,hc
angle_coeff	10	108.72800	58.54460	-10.80880	-12.40060	#	hc,c,o4e
angle_coeff	11	108.72800	58.54460	-10.80880	-12.40060	#	hc,c,oc
angle_coeff	12	108.72800	58.54460	-10.80880	-12.40060	#	hc,c,oh

# BondBond Coeffs

angle_coeff	1	bb	0.00000	1.53000	1.53000	#	c,c,c
angle_coeff	2	bb	3.38720	1.53000	1.10100	#	c,c,hc
angle_coeff	3	bb	11.43180	1.53000	1.42000	#	c,c,o4e
angle_coeff	4	bb	11.43180	1.53000	1.42000	#	c,c,oc
angle_coeff	5	bb	11.43180	1.53000	1.42000	#	c,c,oh
angle_coeff	6	bb	-7.11310	1.42000	1.42000	#	c,o4e,c
angle_coeff	7	bb	-7.11310	1.42000	1.42000	#	c,oc,c
angle_coeff	8	bb	0.00000	1.42000	0.96000	#	c,oh,h
angle_coeff	9	bb	5.33160	1.10100	1.10100	#	hc,c,hc
angle_coeff	10	bb	23.19790	1.10100	1.42000	#	hc,c,o4e
angle_coeff	11	bb	23.19790	1.10100	1.42000	#	hc,c,oc
angle_coeff	12	bb	23.19790	1.10100	1.42000	#	hc,c,oh

# BondAngle Coeffs

angle_coeff	1	ba	8.01600	8.01600	1.53000	1.53000	#	c,c,c
angle_coeff	2	ba	20.75400	11.42100	1.53000	1.10100	#	c,c,hc
angle_coeff	3	ba	2.68680	20.40330	1.53000	1.42000	#	c,c,o4e
angle_coeff	4	ba	2.68680	20.40330	1.53000	1.42000	#	c,c,oc
angle_coeff	5	ba	2.68680	20.40330	1.53000	1.42000	#	c,c,oh
angle_coeff	6	ba	-2.81120	-2.81120	1.42000	1.42000	#	c,o4e,c
angle_coeff	7	ba	-2.81120	-2.81120	1.42000	1.42000	#	c,oc,c
angle_coeff	8	ba	0.00000	0.00000	1.42000	0.96000	#	c,oh,h
angle_coeff	9	ba	18.10300	18.10300	1.10100	1.10100	#	hc,c,hc
angle_coeff	10	ba	4.61890	55.32700	1.10100	1.42000	#	hc,c,o4e
angle_coeff	11	ba	4.61890	55.32700	1.10100	1.42000	#	hc,c,oc
angle_coeff	12	ba	4.61890	55.32700	1.10100	1.42000	#	hc,c,oh

# Dihedral Coeffs

dihedral_coeff	1	0.00000	0.00000	0.05140	0.00000	-0.14300	0.00000	#	c,c,c,c
dihedral_coeff	2	0.00000	0.00000	0.03160	0.00000	-0.16810	0.00000	#	c,c,c,hc
dihedral_coeff	3	0.71370	0.00000	0.26600	0.00000	-0.25450	0.00000	#	c,c,c,o4e
dihedral_coeff	4	0.71370	0.00000	0.26600	0.00000	-0.25450	0.00000	#	c,c,c,oc
dihedral_coeff	5	0.71370	0.00000	0.26600	0.00000	-0.25450	0.00000	#	c,c,c,oh
dihedral_coeff	6	-0.52030	0.00000	-0.30280	0.00000	-0.34500	0.00000	#	c,c,o4e,c
dihedral_coeff	7	-0.52030	0.00000	-0.30280	0.00000	-0.34500	0.00000	#	c,c,oc,c
dihedral_coeff	8	0.00000	0.00000	0.00000	0.00000	0.13000	180.00000	#	c,c,oh,h
dihedral_coeff	9	0.53020	0.00000	0.00000	0.00000	-0.39660	0.00000	#	c,o4e,c,hc
dihedral_coeff	10	0.53020	0.00000	0.00000	0.00000	-0.39660	0.00000	#	c,oc,c,hc
dihedral_coeff	11	0.00000	0.00000	0.00000	0.00000	0.13000	180.00000	#	h,oh,c,hc
dihedral_coeff	12	-0.14320	0.00000	0.06170	0.00000	-0.10830	0.00000	#	hc,c,c,hc

# MiddleBondTorsion Coeffs

dihedral_coeff	1	mbt	-17.78700	-7.18770	0.00000	1.53000	#	c,c,c,c
dihedral_coeff	2	mbt	-14.87900	-3.65810	-0.31380	1.53000	#	c,c,c,hc
dihedral_coeff	3	mbt	-21.88420	-7.67640	-0.68680	1.53000	#	c,c,c,o4e
dihedral_coeff	4	mbt	-21.88420	-7.67640	-0.68680	1.53000	#	c,c,c,oc
dihedral_coeff	5	mbt	-21.88420	-7.67640	-0.68680	1.53000	#	c,c,c,oh
dihedral_coeff	6	mbt	-5.92880	-2.70070	-0.31750	1.42000	#	c,c,o4e,c
dihedral_coeff	7	mbt	-5.92880	-2.70070	-0.31750	1.42000	#	c,c,oc,c
dihedral_coeff	8	mbt	0.00000	0.00000	0.00000	1.42000	#	c,c,oh,h
dihedral_coeff	9	mbt	-6.80070	-4.65460	-1.41010	1.42000	#	c,o4e,c,hc
dihedral_coeff	10	mbt	-6.80070	-4.65460	-1.41010	1.42000	#	c,oc,c,hc
dihedral_coeff	11	mbt	0.00000	0.00000	0.00000	1.42000	#	h,oh,c,hc
dihedral_coeff	12	mbt	-14.26100	-0.53220	-0.48640	1.53000	#	hc,c,c,hc

# EndBondTorsion Coeffs

dihedral_coeff	1	ebt	-0.07320	0.00000	0.00000	-0.07320	0.00000	0.00000	1.53000	1.53000	#	c,c,c,c
dihedral_coeff	2	ebt	0.24860	0.24220	-0.09250	0.08140	0.05910	0.22190	1.53000	1.10100	#	c,c,c,hc
dihedral_coeff	3	ebt	-0.31900	0.44110	-0.71740	1.15380	0.84090	-0.91380	1.53000	1.42000	#	c,c,c,o4e
dihedral_coeff	4	ebt	-0.31900	0.44110	-0.71740	1.15380	0.84090	-0.91380	1.53000	1.42000	#	c,c,c,oc
dihedral_coeff	5	ebt	-0.31900	0.44110	-0.71740	1.15380	0.84090	-0.91380	1.53000	1.42000	#	c,c,c,oh
dihedral_coeff	6	ebt	-0.24560	1.05170	-0.77950	0.47410	1.26350	0.55760	1.53000	1.42000	#	c,c,o4e,c
dihedral_coeff	7	ebt	-0.24560	1.05170	-0.77950	0.47410	1.26350	0.55760	1.53000	1.42000	#	c,c,oc,c
dihedral_coeff	8	ebt	0.00000	0.00000	0.00000	0.00000	0.00000	0.00000	1.53000	0.96000	#	c,c,oh,h
dihedral_coeff	9	ebt	-0.16200	0.15640	-1.14080	-0.60540	1.33390	0.96480	1.42000	1.10100	#	c,o4e,c,hc
dihedral_coeff	10	ebt	-0.16200	0.15640	-1.14080	-0.60540	1.33390	0.96480	1.42000	1.10100	#	c,oc,c,hc
dihedral_coeff	11	ebt	0.00000	0.00000	0.00000	0.00000	0.00000	0.00000	0.96000	1.10100	#	h,oh,c,hc
dihedral_coeff	12	ebt	0.21300	0.31200	0.07770	0.21300	0.31200	0.07770	1.10100	1.10100	#	hc,c,c,hc

# AngleTorsion Coeffs

dihedral_coeff	1	at	0.38860	-0.31390	0.13890	0.38860	-0.31390	0.13890	112.67000	112.67000	#	c,c,c,c
dihedral_coeff	2	at	-0.24540	0.00000	-0.11360	0.31130	0.45160	-0.19880	112.67000	110.77000	#	c,c,c,hc
dihedral_coeff	3	at	0.56230	-0.30410	-0.40150	0.96720	-0.75660	-1.23310	112.67000	111.27000	#	c,c,c,o4e
dihedral_coeff	4	at	0.56230	-0.30410	-0.40150	0.96720	-0.75660	-1.23310	112.67000	111.27000	#	c,c,c,oc
dihedral_coeff	5	at	0.56230	-0.30410	-0.40150	0.96720	-0.75660	-1.23310	112.67000	111.27000	#	c,c,c,oh
dihedral_coeff	6	at	-2.74660	1.48770	-0.89550	0.56760	0.94500	0.07030	111.27000	104.50000	#	c,c,o4e,c
dihedral_coeff	7	at	-2.74660	1.48770	-0.89550	0.56760	0.94500	0.07030	111.27000	104.50000	#	c,c,oc,c
dihedral_coeff	8	at	0.00000	0.00000	0.00000	0.00000	0.00000	0.00000	111.27000	109.00000	#	c,c,oh,h
dihedral_coeff	9	at	-0.77770	0.43400	-0.66530	-1.82340	1.63930	0.51440	104.50000	108.72800	#	c,o4e,c,hc
dihedral_coeff	10	at	-0.77770	0.43400	-0.66530	-1.82340	1.63930	0.51440	104.50000	108.72800	#	c,oc,c,hc
dihedral_coeff	11	at	0.00000	0.00000	0.00000	0.00000	0.00000	0.00000	109.00000	108.72800	#	h,oh,c,hc
dihedral_coeff	12	at	-0.80850	0.55690	-0.24660	-0.80850	0.55690	-0.24660	110.77000	110.77000	#	hc,c,c,hc

# AngleAngleTorsion Coeffs

dihedral_coeff	1	aat	-22.04500	112.67000	112.67000	#	c,c,c,c
dihedral_coeff	2	aat	-16.16400	112.67000	110.77000	#	c,c,c,hc
dihedral_coeff	3	aat	-29.04200	112.67000	111.27000	#	c,c,c,o4e
dihedral_coeff	4	aat	-29.04200	112.67000	111.27000	#	c,c,c,oc
dihedral_coeff	5	aat	-29.04200	112.67000	111.27000	#	c,c,c,oh
dihedral_coeff	6	aat	-19.00590	111.27000	104.50000	#	c,c,o4e,c
dihedral_coeff	7	aat	-19.00590	111.27000	104.50000	#	c,c,oc,c
dihedral_coeff	8	aat	0.00000	111.27000	109.00000	#	c,c,oh,h
dihedral_coeff	9	aat	-16.44380	104.50000	108.72800	#	c,o4e,c,hc
dihedral_coeff	10	aat	-16.44380	104.50000	108.72800	#	c,oc,c,hc
dihedral_coeff	11	aat	0.00000	109.00000	108.72800	#	h,oh,c,hc
dihedral_coeff	12	aat	-12.56400	110.77000	110.77000	#	hc,c,c,hc

# BondBond13 Coeffs

dihedral_coeff	1	bb13	0.00000	1.53000	1.53000	#	c,c,c,c
dihedral_coeff	2	bb13	0.00000	1.53000	1.10100	#	c,c,c,hc
dihedral_coeff	3	bb13	0.00000	1.53000	1.42000	#	c,c,c,o4e
dihedral_coeff	4	bb13	0.00000	1.53000	1.42000	#	c,c,c,oc
dihedral_coeff	5	bb13	0.00000	1.53000	1.42000	#	c,c,c,oh
dihedral_coeff	6	bb13	0.00000	1.53000	1.42000	#	c,c,o4e,c
dihedral_coeff	7	bb13	0.00000	1.53000	1.42000	#	c,c,oc,c
dihedral_coeff	8	bb13	0.00000	1.53000	0.96000	#	c,c,oh,h
dihedral_coeff	9	bb13	0.00000	1.42000	1.10100	#	c,o4e,c,hc
dihedral_coeff	10	bb13	0.00000	1.42000	1.10100	#	c,oc,c,hc
dihedral_coeff	11	bb13	0.00000	0.96000	1.10100	#	h,oh,c,hc
dihedral_coeff	12	bb13	0.00000	1.10100	1.10100	#	hc,c,c,hc

# Improper Coeffs

improper_coeff	1	0.00000	0.00000	#	c,c,c,c
improper_coeff	2	0.00000	0.00000	#	c,c,c,hc
improper_coeff	3	0.00000	0.00000	#	c,c,hc,hc
improper_coeff	4	0.00000	0.00000	#	c,c,hc,o4e
improper_coeff	5	0.00000	0.00000	#	c,c,hc,oc
improper_coeff	6	0.00000	0.00000	#	c,c,o4e,hc
improper_coeff	7	0.00000	0.00000	#	c,c,oc,hc
improper_coeff	8	0.00000	0.00000	#	c,c,oh,hc
improper_coeff	9	0.00000	0.00000	#	c,hc,hc,hc
improper_coeff	10	0.00000	0.00000	#	c,hc,hc,o4e
improper_coeff	11	0.00000	0.00000	#	c,hc,hc,oc
improper_coeff	12	0.00000	0.00000	#	c,hc,hc,oh

# AngleAngle Coeffs

improper_coeff	1	aa	-0.17290	-0.17290	-0.17290	112.67000	112.67000	112.67000	#	c,c,c,c
improper_coeff	2	aa	-1.31990	-1.31990	0.11840	112.67000	110.77000	110.77000	#	c,c,c,hc
improper_coeff	3	aa	0.27380	-0.48250	0.27380	110.77000	110.77000	107.66000	#	c,c,hc,hc
improper_coeff	4	aa	3.91770	2.59260	0.16890	110.77000	111.27000	108.72800	#	c,c,hc,o4e
improper_coeff	5	aa	3.91770	2.59260	0.16890	110.77000	111.27000	108.72800	#	c,c,hc,oc
improper_coeff	6	aa	0.16890	2.59260	3.91770	111.27000	110.77000	108.72800	#	c,c,o4e,hc
improper_coeff	7	aa	0.16890	2.59260	3.91770	111.27000	110.77000	108.72800	#	c,c,oc,hc
improper_coeff	8	aa	0.16890	2.59260	3.91770	111.27000	110.77000	108.72800	#	c,c,oh,hc
improper_coeff	9	aa	-0.31570	-0.31570	-0.31570	107.66000	107.66000	107.66000	#	c,hc,hc,hc
improper_coeff	10	aa	2.42590	2.42590	2.12830	107.66000	108.72800	108.72800	#	c,hc,hc,o4e
improper_coeff	11	aa	2.42590	2.42590	2.12830	107.66000	108.72800	108.72800	#	c,hc,hc,oc
improper_coeff	12	aa	2.42590	2.42590	2.12830	107.66000	108.72800	108.72800	#	c,hc,hc,oh

# ------------------------------- OPT Section -------------------------------
minimize 1.0e-5 1.0e-7 100000 400000
Generated 15 of 15 mixed pair_coeff terms from sixthpower/geometric mixing rule
Neighbor list info ...
  update: every = 1 steps, delay = 0 steps, check = yes
  max neighbors/atom: 2000, page size: 100000
  master list distance cutoff = 12
  ghost atom cutoff = 12
  binsize = 6, bins = 8 8 8
  1 neighbor lists, perpetual/occasional/extra = 1 0 0
  (1) pair lj/class2/coul/cut, perpetual
      attributes: half, newton on
      pair build: half/bin/newton
      stencil: half/bin/3d
      bin: standard
Per MPI rank memory allocation (min/avg/max) = 34.62 | 34.65 | 34.68 Mbytes
   Step          Temp          E_pair         E_mol          TotEng         Press     
         0   0             -111.49712      6914.0793      6802.5822     -2884.4124    
        51   0             -1097.6981      1751.9119      654.21379      159.21864    
Loop time of 1.68402 on 6 procs for 51 steps with 5021 atoms

99.0% CPU use with 6 MPI tasks x no OpenMP threads

Minimization stats:
  Stopping criterion = linesearch alpha is zero
  Energy initial, next-to-last, final = 
       6802.5822260671   654.213790249399   654.213790249396
  Force two-norm initial, final = 2341.0569 149.0717
  Force max component initial, final = 114.45298 9.274248
  Final line search alpha, max atom move = 5.0524794e-13 4.6857947e-12
  Iterations, force evaluations = 51 205

MPI task timing breakdown:
Section |  min time  |  avg time  |  max time  |%varavg| %total
---------------------------------------------------------------
Pair    | 0.35271    | 0.5254     | 0.8039     |  20.5 | 31.20
Bond    | 0.49199    | 0.6493     | 0.7971     |  15.0 | 38.56
Neigh   | 0.014096   | 0.014119   | 0.01416    |   0.0 |  0.84
Comm    | 0.06811    | 0.48405    | 0.80455    |  37.6 | 28.74
Output  | 0          | 0          | 0          |   0.0 |  0.00
Modify  | 0          | 0          | 0          |   0.0 |  0.00
Other   |            | 0.01115    |            |       |  0.66

Nlocal:        836.833 ave        1002 max         686 min
Histogram: 2 0 1 0 0 0 0 1 1 1
Nghost:         5364.5 ave        5532 max        5109 min
Histogram: 1 0 0 0 1 0 1 1 1 1
Neighs:         152551 ave      182898 max      109634 min
Histogram: 1 1 0 0 0 1 0 0 1 2

Total # of neighbors = 915305
Ave neighs/atom = 182.29536
Ave special neighs/atom = 10.874726
Neighbor list builds = 3
Dangerous builds = 0
# ------------------------------- Run Section -------------------------------
#

thermo_style custom step temp pe evdwl ecoul ebond eangle edihed eimp density vol
thermo          100

fix Langevin  all langevin 300 300 100.0 482432
fix moveLimit all nve/limit 0.1
run 20000
Generated 15 of 15 mixed pair_coeff terms from sixthpower/geometric mixing rule
Per MPI rank memory allocation (min/avg/max) = 33.49 | 33.52 | 33.56 Mbytes
   Step          Temp          PotEng         E_vdwl         E_coul         E_bond        E_angle        E_dihed        E_impro        Density         Volume    
        51   0              654.21379     -925.17756     -172.5205       68.633426      7204.1421     -5482.4315     -38.432109      0.44999999     105550.03    
       100   123.06434      2195.8189     -854.65252     -131.05571      709.83216      7902.4622     -5390.1511     -40.616147      0.44999999     105550.03    
       200   240.85354      3855.3302     -791.94901     -138.19045      1399.6747      8734.3341     -5301.8853     -46.653833      0.44999999     105550.03    
       300   284.01371      4158.4659     -791.31913     -180.85488      1506.83        8957.1195     -5283.4019     -49.907699      0.44999999     105550.03    
       400   293.90536      4197.113      -855.31651     -298.00591      1637.3288      8900.5143     -5141.6535     -45.754164      0.44999999     105550.03    
       500   296.97759      4313.0112     -844.99202     -239.45231      1663.7366      9010.2518     -5220.4363     -56.096557      0.44999999     105550.03    
       600   299.82305      4331.6537     -845.528       -242.72795      1676.3017      9028.055      -5234.4848     -49.962294      0.44999999     105550.03    
       700   305.64195      4492.1631     -867.50307     -115.46845      1727.8475      9115.1004     -5313.4568     -54.356469      0.44999999     105550.03    
       800   297.27022      4236.47       -851.98235     -273.36021      1696.9556      8990.933      -5277.4587     -48.617263      0.44999999     105550.03    
       900   299.21535      4389.6193     -851.01363     -122.64142      1725.3079      8949.2348     -5257.9888     -53.279466      0.44999999     105550.03    
      1000   302.93271      4098.179      -892.84032     -259.35435      1652.9442      9012.0529     -5361.1945     -53.428908      0.44999999     105550.03    
      1100   297.72218      4139.3484     -845.3298      -294.50964      1706.8508      9016.9272     -5395.7839     -48.806244      0.44999999     105550.03    
      1200   294.82578      4372.2127     -862.11265     -180.11808      1710.3689      9146.4055     -5392.1107     -50.220226      0.44999999     105550.03    
      1300   298.4568       4185.1534     -885.27459     -272.66788      1634.6471      9090.12       -5336.9127     -44.758436      0.44999999     105550.03    
      1400   301.72182      4388.6147     -836.92574     -79.396159      1737.2726      9032.4086     -5417.1594     -47.58521       0.44999999     105550.03    
      1500   292.74408      4230.4974     -872.98033     -161.98993      1735.4405      8918.9136     -5338.9142     -49.97226       0.44999999     105550.03    
      1600   294.9057       4211.2659     -882.4274      -161.78363      1691.7401      9025.7143     -5409.2967     -52.680821      0.44999999     105550.03    
      1700   301.64394      4080.422      -886.99789     -262.62502      1723.3678      8917.9239     -5360.8505     -50.396267      0.44999999     105550.03    
      1800   292.4027       4163.4511     -869.60656     -286.24105      1748.9226      8994.7466     -5374.8416     -49.529034      0.44999999     105550.03    
      1900   303.15084      4067.8588     -907.29484     -277.81229      1730.3058      8933.1843     -5361.3357     -49.188388      0.44999999     105550.03    
      2000   297.92815      4193.2481     -883.94113     -183.48963      1706.0634      9019.0191     -5410.7478     -53.655769      0.44999999     105550.03    
      2100   305.6231       3986.1967     -861.3399      -314.12457      1682.8851      8867.9206     -5336.5013     -52.643302      0.44999999     105550.03    
      2200   297.80979      3927.5826     -868.49545     -315.54182      1670.8443      8919.5483     -5424.4108     -54.361864      0.44999999     105550.03    
      2300   300.46364      3957.2005     -875.49559     -344.91502      1671.804       8958.0104     -5401.2717     -50.931573      0.44999999     105550.03    
      2400   298.55156      4094.8296     -865.40014     -238.34987      1732.2213      9028.7748     -5509.7392     -52.677203      0.44999999     105550.03    
      2500   300.17275      4035.4699     -886.14592     -258.08893      1669.1531      8954.581      -5396.984      -47.045396      0.44999999     105550.03    
      2600   297.27115      4042.0967     -855.14588     -208.86737      1656.425       8972.0779     -5472.6472     -49.745717      0.44999999     105550.03    
      2700   296.1474       3945.5728     -879.29502     -289.62838      1673.4601      9009.4774     -5514.7645     -53.676873      0.44999999     105550.03    
      2800   298.34025      3930.6969     -896.09797     -325.81028      1687.2963      8922.0914     -5404.9558     -51.826669      0.44999999     105550.03    
      2900   300.20688      4141.722      -909.33934     -192.88923      1735.7755      9063.6469     -5504.0355     -51.436346      0.44999999     105550.03    
      3000   301.76533      4168.0671     -869.9956      -149.38546      1735.2689      8916.51       -5414.9025     -49.428233      0.44999999     105550.03    
      3100   300.70606      3849.7294     -894.07613     -351.91007      1689.5653      8940.683      -5479.6716     -54.861059      0.44999999     105550.03    
      3200   301.10634      3882.8106     -927.16578     -298.1744       1696.1787      8923.4239     -5457.738      -53.713859      0.44999999     105550.03    
      3300   299.64546      3997.2266     -903.23126     -235.64315      1721.793       8908.9482     -5445.7753     -48.864781      0.44999999     105550.03    
      3400   296.0583       3887.7336     -887.37537     -296.64308      1655.0132      8974.3929     -5508.9111     -48.742945      0.44999999     105550.03    
      3500   300.15014      3898.133      -849.50756     -342.09658      1650.378       9013.1845     -5520.408      -53.417361      0.44999999     105550.03    
      3600   301.2921       3917.7383     -883.01808     -261.024        1709.0012      8845.6566     -5439.779      -53.098401      0.44999999     105550.03    
      3700   302.38471      3923.129      -877.63049     -324.96054      1650.4876      8977.1711     -5452.5167     -49.421975      0.44999999     105550.03    
      3800   302.44868      4007.2617     -883.17948     -163.12696      1654.5496      9028.2956     -5577.0168     -52.260333      0.44999999     105550.03    
      3900   296.05533      3909.1022     -870.54432     -293.45175      1703.8203      8921.3478     -5505.1116     -46.958208      0.44999999     105550.03    
      4000   300.97145      3810.9434     -886.45524     -322.56888      1674.4898      8846.1738     -5448.2203     -52.475821      0.44999999     105550.03    
      4100   304.67275      3795.1125     -900.64154     -332.20825      1672.9245      8900.6401     -5491.1714     -54.430897      0.44999999     105550.03    
      4200   300.37289      3924.0862     -933.27063     -246.18738      1683.5742      8987.1775     -5514.2062     -53.001321      0.44999999     105550.03    
      4300   297.73268      3966.586      -914.00563     -308.78536      1744.1085      8910.0602     -5411.1852     -53.606553      0.44999999     105550.03    
      4400   298.22739      3820.7964     -885.98293     -396.84976      1693.0748      9026.3903     -5561.0848     -54.751199      0.44999999     105550.03    
      4500   300.56505      3925.9819     -920.97344     -191.20611      1667.4771      8764.4359     -5347.759      -45.992541      0.44999999     105550.03    
      4600   299.50589      3870.5573     -943.86555     -246.69075      1693.7412      8993.0828     -5574.3852     -51.325071      0.44999999     105550.03    
      4700   303.81531      3812.7716     -915.95765     -290.91792      1674.8385      8893.4018     -5497.6803     -50.912824      0.44999999     105550.03    
      4800   303.73561      3990.6688     -956.55027     -183.85097      1661.4401      8972.3844     -5450.4635     -52.290905      0.44999999     105550.03    
      4900   304.60324      3833.5392     -886.04915     -285.16027      1669.0594      8945.6292     -5557.2207     -52.719339      0.44999999     105550.03    
      5000   295.87655      3870.9573     -918.63053     -264.45313      1693.741       8982.9244     -5569.5562     -53.068121      0.44999999     105550.03    
      5100   304.14154      3816.6774     -911.95562     -309.80195      1679.1695      9015.5334     -5601.5538     -54.714043      0.44999999     105550.03    
      5200   295.53726      3843.7653     -953.83616     -213.30535      1692.1115      8809.4409     -5436.5238     -54.12185       0.44999999     105550.03    
      5300   297.95795      3852.0836     -940.28815     -208.10879      1707.295       8809.5399     -5463.8077     -52.546533      0.44999999     105550.03    
      5400   296.49171      3911.2674     -932.64204     -171.98733      1651.2205      8954.7722     -5535.0845     -55.011445      0.44999999     105550.03    
      5500   302.94972      3837.8115     -940.28562     -241.806        1704.6099      8914.5598     -5548.7308     -50.535782      0.44999999     105550.03    
      5600   296.85769      3627.2129     -935.585       -368.18341      1671.9419      8913.8682     -5602.651      -52.177823      0.44999999     105550.03    
      5700   298.01501      3617.0866     -924.10644     -414.37207      1675.9692      8899.7685     -5570.314      -49.858543      0.44999999     105550.03    
      5800   293.69336      3658.8915     -934.37914     -381.79215      1742.4462      8848.2463     -5564.2794     -51.350371      0.44999999     105550.03    
      5900   299.13252      3600.8536     -936.88181     -434.27301      1698.0451      8942.3191     -5616.1782     -52.177522      0.44999999     105550.03    
      6000   295.75903      3659.677      -946.86884     -389.49869      1736.8089      8951.7443     -5640.2479     -52.260815      0.44999999     105550.03    
      6100   294.58926      3591.7613     -933.8772      -393.82084      1632.4787      8934.4084     -5595.2548     -52.173018      0.44999999     105550.03    
      6200   296.87388      3611.9465     -938.45928     -368.55823      1674.9928      8920.3544     -5625.7623     -50.620967      0.44999999     105550.03    
      6300   300.90224      3609.2249     -925.22823     -458.75153      1678.5865      8889.6906     -5522.5439     -52.528627      0.44999999     105550.03    
      6400   303.27576      3615.8364     -933.69319     -379.73454      1671.9333      8923.5385     -5615.0948     -51.112791      0.44999999     105550.03    
      6500   300.21983      3490.7211     -954.8201      -511.04747      1711.0663      8868.3902     -5572.84       -50.027886      0.44999999     105550.03    
      6600   300.42783      3591.3003     -934.73523     -351.45718      1664.3621      8913.9018     -5650.8882     -49.882944      0.44999999     105550.03    
      6700   304.0848       3645.7086     -979.68738     -380.41186      1676.4728      8972.5209     -5586.2409     -56.944921      0.44999999     105550.03    
      6800   300.21867      3707.5215     -934.10226     -306.64471      1676.3671      8968.7561     -5645.302      -51.552642      0.44999999     105550.03    
      6900   297.37021      3821.6995     -953.38576     -204.1218       1682.1667      8964.1        -5616.3959     -50.663709      0.44999999     105550.03    
      7000   299.98205      3780.9129     -969.0248      -297.90491      1729.8802      8988.7176     -5620.5644     -50.190752      0.44999999     105550.03    
      7100   299.33172      3706.7686     -963.71511     -237.0235       1669.7012      8830.333      -5542.318      -50.209046      0.44999999     105550.03    
      7200   298.4066       3640.9319     -947.07634     -358.01905      1652.8616      8878.5492     -5535.0904     -50.293099      0.44999999     105550.03    
      7300   299.29441      3673.4713     -958.47526     -384.71916      1710.6714      8920.6176     -5560.3353     -54.28805       0.44999999     105550.03    
      7400   300.05812      3618.1623     -986.8468      -302.50038      1639.4681      8861.0306     -5540.139      -52.850263      0.44999999     105550.03    
      7500   297.24273      3581.3419     -971.6273      -366.03323      1655.5308      8827.297      -5509.2977     -54.527589      0.44999999     105550.03    
      7600   298.48589      3729.7495     -951.33125     -286.48178      1664.0244      8865.7467     -5511.0663     -51.142218      0.44999999     105550.03    
      7700   305.50541      3797.5148     -947.50762     -207.30173      1622.9177      9068.807      -5686.3068     -53.0937        0.44999999     105550.03    
      7800   298.09918      3751.3506     -947.34546     -231.2801       1648.5076      8834.0566     -5498.2622     -54.325855      0.44999999     105550.03    
      7900   293.7615       3640.6875     -975.4099      -309.39228      1670.7294      8905.7521     -5598.3761     -52.615608      0.44999999     105550.03    
      8000   300.83942      3588.4067     -948.02624     -401.01905      1690.5173      8922.9986     -5622.5586     -53.505277      0.44999999     105550.03    
      8100   301.59454      3698.4604     -991.79814     -275.28456      1694.4688      8827.3885     -5500.3608     -55.953441      0.44999999     105550.03    
      8200   303.29405      3730.4436     -981.48447     -292.18979      1709.6695      8929.1254     -5577.0737     -57.603287      0.44999999     105550.03    
      8300   299.18191      3655.3239     -984.69069     -282.04241      1680.4524      8884.8141     -5591.8958     -51.313758      0.44999999     105550.03    
      8400   305.2078       3555.7172     -992.92428     -396.77001      1655.4623      8872.2504     -5528.1927     -54.108515      0.44999999     105550.03    
      8500   301.25154      3683.2191     -981.88743     -278.02956      1700.8661      8942.5014     -5650.6315     -49.599838      0.44999999     105550.03    
      8600   296.85903      3615.184      -959.80824     -373.92147      1679.8748      8849.876      -5531.2123     -49.624694      0.44999999     105550.03    
      8700   296.28706      3677.5472     -957.8781      -367.56979      1687.4765      8976.6396     -5606.1742     -54.946844      0.44999999     105550.03    
      8800   300.42191      3554.8218     -962.60527     -471.78025      1720.0392      8813.1431     -5487.3126     -56.662349      0.44999999     105550.03    
      8900   302.86223      3704.9906     -955.92109     -320.86232      1688.2986      8967.5112     -5620.2494     -53.786404      0.44999999     105550.03    
      9000   300.42813      3717.0673     -1001.5389     -289.27397      1703.8958      9007.9362     -5647.7402     -56.211688      0.44999999     105550.03    
      9100   298.49399      3540.9        -993.33577     -300.45481      1697.8382      8916.7855     -5727.0656     -52.867562      0.44999999     105550.03    
      9200   303.52976      3497.6703     -1002.6346     -373.63298      1660.6239      8844.1539     -5578.8002     -52.039689      0.44999999     105550.03    
      9300   301.69461      3630.58       -981.88488     -291.73846      1682.6524      8938.8574     -5663.2679     -54.038666      0.44999999     105550.03    
      9400   298.75059      3495.1198     -977.50439     -378.87435      1666.75        8826.2477     -5594.5325     -46.966663      0.44999999     105550.03    
      9500   300.29137      3517.3354     -1008.4073     -354.39562      1606.7223      8957.8438     -5637.8938     -46.534005      0.44999999     105550.03    
      9600   299.94375      3591.9942     -1024.279      -290.00376      1699.4883      8893.1688     -5638.8953     -47.484786      0.44999999     105550.03    
      9700   294.77807      3562.0668     -1000.4753     -314.30222      1730.88        8912.7011     -5717.3979     -49.33902       0.44999999     105550.03    
      9800   292.60739      3597.7229     -992.04587     -345.10778      1706.0167      8868.8294     -5585.5551     -54.414453      0.44999999     105550.03    
      9900   302.42318      3487.8758     -1050.6411     -367.73501      1728.5215      8855.2973     -5625.6584     -51.908524      0.44999999     105550.03    
     10000   302.92586      3538.4563     -981.64409     -486.27401      1729.415       8998.2561     -5668.7554     -52.54132       0.44999999     105550.03    
     10100   306.7661       3364.7506     -1033.7449     -472.73709      1646.8616      8885.5549     -5607.9932     -53.190582      0.44999999     105550.03    
     10200   304.1663       3463.1644     -947.02949     -472.47403      1627.2981      8881.1036     -5573.1896     -52.544284      0.44999999     105550.03    
     10300   306.43604      3405.1305     -1028.1761     -462.63816      1620.7832      8939.4042     -5611.9508     -52.291868      0.44999999     105550.03    
     10400   300.12252      3658.536      -979.92212     -307.55396      1638.9221      9053.8383     -5690.3202     -56.428048      0.44999999     105550.03    
     10500   299.88606      3535.2662     -994.29968     -350.253        1704.5908      8952.8418     -5725.9519     -51.661826      0.44999999     105550.03    
     10600   298.25324      3334.1214     -984.72825     -475.52833      1627.4424      8985.1683     -5766.1505     -52.082265      0.44999999     105550.03    
     10700   300.7417       3507.6373     -1014.8373     -378.25483      1665.1925      8921.8633     -5640.0867     -46.239619      0.44999999     105550.03    
     10800   298.86922      3570.7044     -1028.2758     -383.52019      1687.8858      8995.437      -5646.4844     -54.338013      0.44999999     105550.03    
     10900   301.17867      3516.9266     -1036.4305     -395.20125      1693.9846      8911.9489     -5605.0238     -52.351407      0.44999999     105550.03    
     11000   302.74598      3632.4686     -996.42016     -391.15262      1800.5926      9055.4215     -5784.6838     -51.288847      0.44999999     105550.03    
     11100   301.9449       3526.8117     -1024.9071     -350.2745       1672.7229      8985.0536     -5701.9088     -53.87446       0.44999999     105550.03    
     11200   305.20706      3472.1163     -1006.9171     -391.04783      1684.4153      8822.9935     -5581.4992     -55.828195      0.44999999     105550.03    
     11300   295.28917      3302.8723     -999.52734     -649.10363      1717.6454      9094.4755     -5806.3546     -54.263036      0.44999999     105550.03    
     11400   299.54717      3533.6967     -1027.2348     -424.24857      1697.9288      8890.5439     -5545.5067     -57.785992      0.44999999     105550.03    
     11500   299.34431      3493.5314     -1009.1026     -438.7081       1667.4002      8894.6879     -5570.6181     -50.127837      0.44999999     105550.03    
     11600   299.55041      3566.4038     -1029.9179     -376.08974      1702.2931      8870.5262     -5545.669      -54.739014      0.44999999     105550.03    
     11700   303.87093      3464.975      -1033.2429     -452.09929      1713.4733      8865.6172     -5574.8796     -53.893853      0.44999999     105550.03    
     11800   299.14596      3425.4608     -1042.8652     -470.85474      1683.8653      8960.9379     -5650.2204     -55.402077      0.44999999     105550.03    
     11900   304.64627      3496.5619     -1019.8        -384.04447      1709.8437      8854.2386     -5612.9138     -50.762124      0.44999999     105550.03    
     12000   299.64101      3400.7199     -1036.0554     -490.8249       1666.4301      9032.6845     -5718.0481     -53.466221      0.44999999     105550.03    
     12100   306.66832      3298.7638     -1046.9122     -428.30825      1605.3596      8882.8337     -5662.1036     -52.1054        0.44999999     105550.03    
     12200   299.57179      3476.4894     -979.80977     -410.20873      1660.8486      8972.6662     -5717.1444     -49.862437      0.44999999     105550.03    
     12300   296.39559      3504.0549     -1047.0589     -428.63496      1733.0388      8904.4148     -5604.3867     -53.318085      0.44999999     105550.03    
     12400   297.40141      3432.8892     -1060.3771     -352.96987      1657.7135      8906.1155     -5664.4588     -53.134173      0.44999999     105550.03    
     12500   309.32135      3464.0795     -1025.7102     -393.4357       1689.5672      8955.4171     -5707.7095     -54.049346      0.44999999     105550.03    
     12600   303.57744      3607.5573     -1061.0357     -283.39944      1735.7818      8881.0542     -5613.3801     -51.463543      0.44999999     105550.03    
     12700   299.07245      3543.9548     -1063.104      -326.50423      1652.607       8969.9563     -5638.1329     -50.867361      0.44999999     105550.03    
     12800   295.9897       3391.3784     -1043.7765     -457.06649      1693.98        8808.8672     -5559.2595     -51.366319      0.44999999     105550.03    
     12900   300.77642      3492.5037     -1012.5159     -406.81788      1707.4444      8866.5599     -5609.9883     -52.178557      0.44999999     105550.03    
     13000   297.19926      3509.3337     -1020.8546     -342.90133      1642.5549      8949.2773     -5665.0655     -53.677047      0.44999999     105550.03    
     13100   295.52613      3432.8161     -996.50973     -392.37013      1694.797       8884.1072     -5705.6403     -51.56789       0.44999999     105550.03    
     13200   300.46119      3516.2235     -1037.4411     -319.61813      1710.7732      8828.5217     -5616.3071     -49.705158      0.44999999     105550.03    
     13300   300.13414      3402.5886     -1014.4096     -405.89835      1672.673       8839.2409     -5639.1007     -49.916708      0.44999999     105550.03    
     13400   298.8697       3570.1507     -1029.98       -294.49575      1728.6356      8845.6719     -5630.8016     -48.879533      0.44999999     105550.03    
     13500   305.45503      3613.4027     -989.19319     -278.3057       1700.2328      8866.4823     -5631.8857     -53.927687      0.44999999     105550.03    
     13600   304.62999      3414.9589     -1031.8721     -395.65102      1675.4776      8896.0642     -5678.5129     -50.546929      0.44999999     105550.03    
     13700   299.68411      3442.0589     -1026.5872     -377.06996      1655.008       8955.1286     -5705.3355     -59.085082      0.44999999     105550.03    
     13800   300.02929      3386.4316     -1024.8412     -399.87697      1669.7209      8799.1057     -5603.8181     -53.858649      0.44999999     105550.03    
     13900   300.43453      3454.8402     -1036.3359     -379.16358      1673.6139      8908.8146     -5656.597      -55.491911      0.44999999     105550.03    
     14000   301.27318      3624.347      -1036.3889     -289.19514      1710.7684      9000.5905     -5707.1666     -54.261375      0.44999999     105550.03    
     14100   304.23936      3531.1357     -1035.2546     -354.69489      1696.7181      8927.5404     -5647.9651     -55.208232      0.44999999     105550.03    
     14200   297.49516      3345.7035     -985.98023     -471.11225      1665.9736      8831.7265     -5642.9063     -51.997765      0.44999999     105550.03    
     14300   305.86871      3458.7389     -1026.5736     -390.83663      1708.9773      9006.8022     -5786.5054     -53.125034      0.44999999     105550.03    
     14400   301.94327      3337.921      -1021.9786     -474.31546      1669.7824      8834.1844     -5618.0124     -51.73936       0.44999999     105550.03    
     14500   299.08135      3420.7853     -1042.5115     -386.0786       1695.1975      8933.9705     -5726.1243     -53.668375      0.44999999     105550.03    
     14600   298.03796      3480.7897     -1050.2593     -429.10021      1698.8822      8920.3129     -5601.4651     -57.580806      0.44999999     105550.03    
     14700   303.28037      3456.515      -1028.4557     -396.30899      1657.0958      8958.3244     -5682.0662     -52.074257      0.44999999     105550.03    
     14800   306.86367      3452.1047     -1021.2502     -366.68197      1644.1297      8837.0433     -5587.9889     -53.147157      0.44999999     105550.03    
     14900   308.49151      3342.23       -1010.3379     -479.04047      1663.3804      8967.7102     -5749.6523     -49.829987      0.44999999     105550.03    
     15000   300.84939      3308.3923     -1046.2659     -500.19484      1713.1947      8883.3799     -5691.2557     -50.46592       0.44999999     105550.03    
     15100   294.93262      3297.7107     -1036.2019     -479.61054      1632.3671      8860.4655     -5626.7055     -52.603913      0.44999999     105550.03    
     15200   297.61044      3371.3292     -1001.6065     -377.55473      1669.4759      8873.5063     -5742.9118     -49.579978      0.44999999     105550.03    
     15300   293.11987      3299.0754     -1025.5763     -486.17617      1616.7934      8840.6206     -5596.1702     -50.415948      0.44999999     105550.03    
     15400   298.70604      3216.8449     -1022.0795     -597.18711      1677.1615      8891.6677     -5678.213      -54.504681      0.44999999     105550.03    
     15500   300.70827      3411.735      -1028.983      -394.02226      1663.3986      8841.1394     -5617.8833     -51.914546      0.44999999     105550.03    
     15600   301.94958      3352.4736     -1040.5989     -466.20185      1676.8369      8878.8645     -5646.5588     -49.868263      0.44999999     105550.03    
     15700   293.94961      3557.4974     -1035.2903     -390.0886       1747.3735      8846.3974     -5560.0638     -50.830829      0.44999999     105550.03    
     15800   295.60875      3421.8879     -1015.7009     -410.60544      1689.9004      8942.9173     -5729.6082     -55.015284      0.44999999     105550.03    
     15900   301.19344      3482.1939     -1051.9796     -322.07708      1730.3735      8909.7802     -5731.7678     -52.135433      0.44999999     105550.03    
     16000   301.20146      3487.292      -1066.7897     -319.14128      1672.5214      8940.7921     -5684.9045     -55.186071      0.44999999     105550.03    
     16100   303.67935      3305.6402     -1068.0392     -505.94441      1649.8163      8887.1727     -5608.8192     -48.54599       0.44999999     105550.03    
     16200   303.92955      3412.1778     -1049.7886     -405.96353      1674.3914      8948.6015     -5702.3005     -52.762474      0.44999999     105550.03    
     16300   304.13286      3493.0765     -1083.6934     -309.34238      1673.805       8879.4228     -5613.3569     -53.758735      0.44999999     105550.03    
     16400   301.19225      3420.8243     -1036.1572     -325.10384      1649.4837      8948.7279     -5761.9671     -54.159101      0.44999999     105550.03    
     16500   303.24891      3391.2975     -1046.7295     -446.40153      1691.1144      8893.5944     -5647.8425     -52.437829      0.44999999     105550.03    
     16600   300.5294       3366.8817     -1036.4827     -427.41595      1667.3545      8980.2896     -5762.8167     -54.046954      0.44999999     105550.03    
     16700   300.50521      3318.4529     -1048.3323     -423.39174      1702.2251      8880.214      -5739.1483     -53.113923      0.44999999     105550.03    
     16800   300.85005      3192.4344     -1046.9033     -521.50034      1697.7873      8832.8938     -5715.8175     -54.025545      0.44999999     105550.03    
     16900   300.86875      3507.0845     -1040.1911     -392.13083      1741.9471      8902.1492     -5649.9052     -54.784663      0.44999999     105550.03    
     17000   304.88732      3435.2556     -1063.0577     -388.6001       1686.4358      8901.9963     -5648.6475     -52.87117       0.44999999     105550.03    
     17100   297.59298      3380.5453     -1063.4262     -430.08293      1696.3972      8900.5924     -5676.0953     -46.839899      0.44999999     105550.03    
     17200   299.96894      3390.4454     -1073.4896     -330.98252      1695.1222      8768.7329     -5620.8003     -48.137262      0.44999999     105550.03    
     17300   298.66778      3325.6507     -1032.2297     -438.70863      1662.3222      8958.1957     -5771.0931     -52.835854      0.44999999     105550.03    
     17400   305.34802      3224.9335     -1052.7862     -490.59047      1633.9434      8793.9894     -5602.9298     -56.692782      0.44999999     105550.03    
     17500   300.11575      3317.3273     -1033.6578     -454.47213      1660.566       8912.9946     -5715.8683     -52.235217      0.44999999     105550.03    
     17600   307.38269      3360.7782     -1047.9999     -396.10988      1705.1581      8872.8935     -5717.9638     -55.199843      0.44999999     105550.03    
     17700   302.68129      3260.5312     -1050.2288     -470.23569      1725.1345      8781.7805     -5674.0147     -51.904624      0.44999999     105550.03    
     17800   300.51442      3310.149      -1048.699      -412.56937      1677.0241      8840.0428     -5696.0817     -49.567866      0.44999999     105550.03    
     17900   300.13183      3441.4526     -1031.7931     -357.81276      1661.9615      8960.2779     -5736.0883     -55.092535      0.44999999     105550.03    
     18000   294.46533      3251.1215     -1054.8078     -548.90197      1691.302       8870.248      -5654.561      -52.157582      0.44999999     105550.03    
     18100   299.81382      3336.9374     -1066.6659     -408.62027      1628.5456      8863.5143     -5623.1712     -56.665154      0.44999999     105550.03    
     18200   299.34645      3367.6011     -1041.0698     -391.06805      1644.9423      8896.9432     -5687.4668     -54.679617      0.44999999     105550.03    
     18300   299.54909      3500.8834     -1062.9767     -355.3859       1688.7168      8895.0102     -5610.6948     -53.786123      0.44999999     105550.03    
     18400   299.79407      3305.4115     -1050.177      -445.87659      1646.0645      8850.9167     -5642.4621     -53.054001      0.44999999     105550.03    
     18500   304.28253      3241.9208     -1061.896      -484.85423      1682.3393      8707.9566     -5549.0881     -52.536718      0.44999999     105550.03    
     18600   300.86382      3493.19       -1050.9649     -339.28283      1703.549       8922.2233     -5686.5118     -55.822778      0.44999999     105550.03    
     18700   301.78268      3404.7302     -1039.5637     -384.37236      1710.841       8840.2912     -5669.6852     -52.780614      0.44999999     105550.03    
     18800   296.65386      3420.5213     -1085.646      -282.04882      1671.2026      8861.7138     -5693.4606     -51.23959       0.44999999     105550.03    
     18900   299.65923      3564.243      -1103.4669     -291.18212      1676.6565      8901.7053     -5570.0224     -49.447332      0.44999999     105550.03    
     19000   301.72525      3321.6547     -1106.9674     -467.32868      1689.4128      8938.9409     -5682.3954     -50.007434      0.44999999     105550.03    
     19100   298.79719      3545.9684     -1073.9323     -294.97719      1698.8364      9100.0394     -5831.2908     -52.707027      0.44999999     105550.03    
     19200   300.48092      3518.6423     -1056.9399     -306.15715      1693.2731      8932.9959     -5694.4801     -50.049651      0.44999999     105550.03    
     19300   301.79461      3427.6209     -1074.0494     -376.94963      1713.5237      8972.8274     -5753.0527     -54.678378      0.44999999     105550.03    
     19400   294.70557      3420.4916     -1071.8962     -345.54088      1702.2159      8962.3889     -5774.754      -51.921977      0.44999999     105550.03    
     19500   299.50548      3312.2015     -1048.6919     -391.36813      1669.3414      8898.9267     -5767.0845     -48.92194       0.44999999     105550.03    
     19600   300.38723      3421.9217     -1056.6515     -292.60902      1676.1301      9000.6965     -5855.1936     -50.450759      0.44999999     105550.03    
     19700   297.42791      3395.9011     -1059.6766     -443.07744      1707.6055      8937.4954     -5696.456      -49.989621      0.44999999     105550.03    
     19800   305.21204      3375.007      -1055.1323     -420.15369      1730.016       8936.2041     -5764.4376     -51.489599      0.44999999     105550.03    
     19900   304.00359      3265.1735     -1072.2148     -475.262        1664.7984      8859.5787     -5657.0697     -54.65704       0.44999999     105550.03    
     20000   309.03485      3236.3878     -1071.0991     -459.02127      1659.5238      8877.6986     -5718.8878     -51.826449      0.44999999     105550.03    
     20051   304.11355      3298.2488     -1051.786      -496.0585       1694.6193      8932.6578     -5728.3875     -52.796367      0.44999999     105550.03    
Loop time of 122.736 on 6 procs for 20000 steps with 5021 atoms

Performance: 14.079 ns/day, 1.705 hours/ns, 162.951 timesteps/s, 818.178 katom-step/s
99.1% CPU use with 6 MPI tasks x no OpenMP threads

MPI task timing breakdown:
Section |  min time  |  avg time  |  max time  |%varavg| %total
---------------------------------------------------------------
Pair    | 27.047     | 35.885     | 46.187     | 124.1 | 29.24
Bond    | 35.4       | 44.594     | 62.539     | 163.0 | 36.33
Neigh   | 3.9076     | 3.9126     | 3.9181     |   0.2 |  3.19
Comm    | 8.3233     | 36.489     | 54.496     | 288.7 | 29.73
Output  | 0.010775   | 0.020579   | 0.055956   |  11.1 |  0.02
Modify  | 0.6639     | 0.82038    | 1.0163     |  15.0 |  0.67
Other   |            | 1.014      |            |       |  0.83

Nlocal:        836.833 ave        1083 max         656 min
Histogram: 2 1 0 0 0 1 0 1 0 1
Nghost:         5386.5 ave        5579 max        5070 min
Histogram: 1 0 0 0 0 2 0 1 1 1
Neighs:         162161 ave      221351 max      120501 min
Histogram: 2 0 1 0 0 1 1 0 0 1

Total # of neighbors = 972965
Ave neighs/atom = 193.77913
Ave special neighs/atom = 10.874726
Neighbor list builds = 715
Dangerous builds = 0
unfix Langevin
unfix moveLimit



fix 		relax all npt temp 300.0 300.0 100 iso 1.0 1.0 1000
run 10000
Generated 15 of 15 mixed pair_coeff terms from sixthpower/geometric mixing rule
Per MPI rank memory allocation (min/avg/max) = 33.49 | 33.59 | 33.94 Mbytes
   Step          Temp          PotEng         E_vdwl         E_coul         E_bond        E_angle        E_dihed        E_impro        Density         Volume    
     20051   304.11355      3298.2488     -1051.786      -496.0585       1694.6193      8932.6578     -5728.3875     -52.796367      0.44999999     105550.03    
     20100   298.89006      3514.4483     -1075.9122     -354.6516       1705.4949      8929.4719     -5635.4648     -54.489835      0.45011639     105522.74    
     20200   297.27806      3517.0628     -1034.5513     -299.10902      1697.2309      8966.2285     -5764.1028     -48.633487      0.45196289     105091.62    
     20300   295.52012      3291.7872     -1063.695      -420.51772      1573.972       9012.529      -5759.7581     -50.743062      0.4556708      104236.46    
     20400   297.40134      3191.6826     -1111.2473     -519.60523      1645.1612      8982.9539     -5756.0324     -49.547567      0.46012685     103227       
     20500   298.97739      3200.3366     -1086.8702     -519.59882      1660.4763      8913.5124     -5715.6631     -51.519955      0.46488615     102170.2     
     20600   304.02374      3247.0478     -1133.1604     -431.63449      1667.6238      8939.8387     -5745.9736     -49.646194      0.46851305     101379.27    
     20700   298.90793      3379.8575     -1145.7992     -332.88702      1623.6264      8876.7026     -5591.0866     -50.698764      0.47226333     100574.21    
     20800   298.3232       3261.6331     -1120.3509     -348.27257      1640.8411      8871.8764     -5727.2575     -55.203333      0.47630748     99720.274    
     20900   299.90292      3145.5938     -1154.4414     -421.43564      1616.7391      8850.2804     -5691.7477     -53.800952      0.47918075     99122.33     
     21000   299.12784      3392.3015     -1149.7061     -271.57949      1622.4399      8937.5197     -5698.191      -48.181413      0.48179615     98584.25     
     21100   301.35394      3325.2638     -1151.8468     -375.21355      1642.2472      8998.0759     -5737.8431     -50.155807      0.48524352     97883.868    
     21200   302.53253      3258.5776     -1154.5786     -383.61246      1585.865       8946.7697     -5683.1197     -52.746282      0.48854871     97221.652    
     21300   301.83124      3185.6615     -1176.3588     -447.29383      1638.9275      8947.8501     -5723.4692     -53.994307      0.49162828     96612.653    
     21400   299.95133      3240.6084     -1159.5913     -393.58776      1592.6108      8908.7003     -5659.4073     -48.116345      0.49388763     96170.687    
     21500   296.49534      3216.5545     -1155.3612     -440.28127      1679.0076      8891.7927     -5708.8726     -49.730715      0.49627762     95707.545    
     21600   298.33848      2936.1775     -1182.4244     -643.75273      1562.9666      8945.2339     -5691.5427     -54.30315       0.49883435     95217.006    
     21700   291.5466       3076.2935     -1144.8925     -517.36856      1623.7552      8952.7066     -5782.874      -55.033236      0.50194597     94626.743    
     21800   291.68743      3071.3894     -1185.6577     -500.27437      1587.361       8908.6006     -5684.2677     -54.372425      0.50500776     94053.036    
     21900   296.32329      3159.8225     -1214.2743     -485.5123       1674.4734      8880.0215     -5643.1609     -51.724858      0.50744901     93600.563    
     22000   298.41441      3230.7612     -1193.7259     -420.10778      1648.1178      8839.3289     -5590.0502     -52.801518      0.50972394     93182.817    
     22100   306.03967      3231.8276     -1198.9837     -307.80717      1616.4123      8847.3955     -5673.3645     -51.824979      0.51228484     92716.999    
     22200   299.18862      3194.8828     -1219.0565     -380.12828      1580.7714      8903.3212     -5635.8137     -54.211277      0.51515539     92200.361    
     22300   293.3267       3142.1481     -1189.5245     -431.23011      1573.4509      9020.1225     -5770.7011     -59.969461      0.51752956     91777.391    
     22400   295.11984      3080.2369     -1231.5298     -477.27997      1639.1363      8898.0532     -5696.8709     -51.271923      0.52013737     91317.248    
     22500   298.20969      3263.3273     -1215.8305     -364.44995      1631.0819      8938.8935     -5670.2817     -56.085906      0.52274262     90862.139    
     22600   303.9761       3320.2381     -1201.8233     -252.45596      1611.6855      9015.1354     -5800.5991     -51.704479      0.52492337     90484.66     
     22700   299.32431      3264.4726     -1259.8569     -335.40046      1704.0895      8910.3251     -5702.092      -52.592704      0.52660759     90195.268    
     22800   295.31072      3240.7599     -1227.225      -316.21563      1649.6978      8887.4316     -5700.4047     -52.524191      0.52836035     89896.058    
     22900   297.01127      3100.9283     -1199.2735     -422.82521      1616.7129      8930.8093     -5771.2232     -53.271896      0.53078583     89485.269    
     23000   298.78408      3165.6145     -1252.384      -394.82017      1653.079       8883.3905     -5671.753      -51.897836      0.53360753     89012.073    
     23100   305.8301       2974.0714     -1276.1693     -564.19614      1636.5975      8738.6075     -5506.846      -53.922152      0.53719071     88418.344    
     23200   300.43588      2844.6755     -1220.3981     -726.24584      1646.0718      8959.969      -5756.9398     -57.781561      0.541258       87753.922    
     23300   294.69871      2938.8746     -1274.2441     -565.95319      1532.5963      9013.1713     -5711.8824     -54.813181      0.5446395      87209.086    
     23400   294.66164      2991.8868     -1246.8537     -517.03173      1637.3716      8893.9261     -5724.5489     -50.976429      0.5479169      86687.439    
     23500   302.33407      2923.9937     -1262.1458     -530.61865      1585.1258      8914.2168     -5729.1288     -53.455637      0.55078264     86236.402    
     23600   300.86102      3101.4046     -1299.7731     -441.31746      1636.0125      8874.2645     -5615.4562     -52.325752      0.55284024     85915.44     
     23700   305.65093      2958.3885     -1279.8578     -559.89022      1620.0408      9005.6918     -5773.4166     -54.179533      0.55588478     85444.887    
     23800   304.0289       2972.9374     -1330.1718     -498.31878      1636.149       8857.9445     -5638.8558     -53.809751      0.55906102     84959.443    
     23900   302.60524      2828.2268     -1325.9715     -533.10768      1539.7332      8948.7886     -5748.5551     -52.660691      0.56357182     84279.431    
     24000   299.22683      3026.3595     -1287.5666     -387.62451      1592.5712      8859.985      -5697.1285     -53.877151      0.56816084     83598.709    
     24100   303.46293      2953.8796     -1307.0161     -450.86935      1557.9477      8911.1357     -5703.8425     -53.475915      0.57189413     83052.981    
     24200   304.70829      2923.7592     -1317.3609     -548.58922      1624.9722      8923.2919     -5704.9449     -53.609917      0.57474037     82641.685    
     24300   308.4977       2935.6259     -1311.4159     -492.31488      1651.7855      8860.9009     -5722.4864     -50.843353      0.57725575     82281.576    
     24400   297.23369      2890.5712     -1366.5731     -546.95253      1644.4614      8956.2438     -5740.4694     -56.139011      0.57900411     82033.118    
     24500   298.07145      2896.8207     -1333.1121     -489.77583      1585.74        8967.387      -5775.1772     -58.241149      0.58025374     81856.453    
     24600   294.71994      2976.9436     -1307.1083     -481.3801       1638.5353      8865.7465     -5686.0176     -52.832195      0.5824097      81553.436    
     24700   298.09709      2890.8609     -1327.1371     -619.90222      1631.2474      8896.7656     -5637.5761     -52.536721      0.5863993      80998.583    
     24800   305.95263      2971.4368     -1341.7362     -462.67008      1616.9558      8900.6543     -5689.5066     -52.260368      0.59189949     80245.909    
     24900   299.67227      3136.6577     -1356.7348     -331.7254       1677.6354      9008.1171     -5810.298      -50.336609      0.59666611     79604.845    
     25000   301.02546      2980.7409     -1362.183      -357.63478      1578.9717      8949.8836     -5772.5668     -55.729827      0.60029608     79123.477    
     25100   298.3019       2985.0134     -1386.0722     -394.27206      1604.1092      8861.5104     -5648.9388     -51.323249      0.60377978     78666.948    
     25200   294.01306      2832.8392     -1369.874      -616.12151      1657.7587      9055.0591     -5836.396      -57.586947      0.60799899     78121.038    
     25300   299.73665      2732.0207     -1412.9876     -634.31025      1637.1347      8910.161      -5715.9174     -52.059634      0.61223477     77580.554    
     25400   304.829        2859.167      -1392.4497     -421.44949      1580.9792      8951.1665     -5807.9998     -51.079734      0.61586522     77123.226    
     25500   302.64412      2821.4117     -1357.7252     -463.97498      1575.0483      8883.0885     -5763.9122     -51.112695      0.61904121     76727.546    
     25600   296.22848      2866.7867     -1434.92       -452.98431      1582.125       8945.9929     -5720.9431     -52.483706      0.62161373     76410.012    
     25700   295.48131      2785.5222     -1374.5794     -548.6381       1587.3123      8837.26       -5660.8806     -54.951966      0.62423488     76089.168    
     25800   302.49088      2816.6374     -1424.4309     -532.27409      1587.2868      8981.2471     -5739.5218     -55.669665      0.62552591     75932.126    
     25900   303.63772      2808.2475     -1413.8953     -555.21805      1600.2574      8920.02       -5690.8186     -52.097828      0.6281656      75613.043    
     26000   300.26203      2848.6771     -1421.6585     -524.13994      1622.6835      8967.9736     -5739.0903     -57.091387      0.631282       75239.77     
     26100   303.02325      2847.8863     -1431.6594     -414.74396      1587.8581      8857.8029     -5698.0231     -53.348247      0.63427962     74884.185    
     26200   295.4424       2841.8442     -1403.2452     -493.97152      1576.0577      8961.8652     -5747.9807     -50.881263      0.63688371     74577.999    
     26300   303.64355      2873.2759     -1440.0267     -371.04623      1588.248       8784.5126     -5635.1005     -53.311274      0.63874479     74360.704    
     26400   300.84972      2785.0765     -1415.3802     -499.73723      1607.7257      8873.8258     -5727.5863     -53.771189      0.64175879     74011.472    
     26500   294.45755      2825.8235     -1430.5355     -575.06217      1610.6719      8924.1254     -5651.1537     -52.222406      0.64525855     73610.048    
     26600   304.66519      2772.4615     -1436.8134     -573.06053      1637.5701      8853.5477     -5659.8462     -48.936213      0.64876564     73212.128    
     26700   308.77801      2670.2094     -1447.9216     -637.55572      1577.4614      8973.9079     -5740.5941     -55.088455      0.6528543      72753.619    
     26800   302.96077      2791.2231     -1422.1794     -503.89361      1594.9959      8921.4271     -5746.5284     -52.598482      0.65618583     72384.241    
     26900   302.7051       2535.9866     -1426.3968     -718.27211      1596.6016      8916.4465     -5782.0186     -50.373985      0.65767873     72219.931    
     27000   301.42381      2617.4759     -1434.1013     -603.62501      1560.2401      8947.3516     -5796.8062     -55.583308      0.65796357     72188.667    
     27100   301.3239       2667.0392     -1467.7367     -534.20772      1563.6647      8778.3818     -5621.7488     -51.314078      0.65829102     72152.758    
     27200   304.63164      2641.9431     -1451.9868     -575.85244      1598.1728      8841.3542     -5719.3225     -50.422135      0.66097797     71859.449    
     27300   304.12218      2808.5606     -1458.9012     -521.72626      1609.583       8943.6246     -5713.6542     -50.365273      0.66455658     71472.489    
     27400   299.10236      2815.3802     -1458.0023     -559.12814      1684.2579      8890.2781     -5691.2543     -50.771043      0.66902079     70995.571    
     27500   299.69369      2665.3595     -1467.2111     -583.14357      1601.6671      8925.0012     -5758.5581     -52.39603       0.67338304     70535.653    
     27600   297.23871      2711.8924     -1448.3953     -559.85243      1567.3301      8852.3983     -5649.2291     -50.359142      0.67703665     70155.01     
     27700   295.12741      2832.4075     -1469.1277     -504.41398      1656.5144      8842.2977     -5639.1143     -53.748618      0.68001503     69847.739    
     27800   303.7964       2784.2378     -1457.5844     -449.84886      1594.4703      8922.8538     -5773.96       -51.693072      0.68316453     69525.73     
     27900   297.55135      2781.2477     -1520.2825     -446.78029      1584.8066      8898.6138     -5682.9088     -52.201077      0.68588452     69250.014    
     28000   295.49328      2600.6389     -1499.9679     -561.3397       1550.6264      8934.3506     -5775.8452     -47.185269      0.68887357     68949.536    
     28100   297.34149      2634.6074     -1522.1509     -543.22179      1530.1775      8989.6457     -5768.401      -51.44204       0.69225611     68612.63     
     28200   298.64549      2638.8119     -1519.1828     -596.55666      1588.2766      8872.059      -5652.0978     -53.686504      0.69499755     68341.986    
     28300   302.66799      2481.5713     -1522.3283     -741.56825      1580.2472      8871.4283     -5652.886      -53.321726      0.69602179     68241.417    
     28400   302.11748      2604.4009     -1513.5462     -618.34278      1607.1543      8917.0687     -5740.824      -47.109237      0.6968202      68163.226    
     28500   300.10422      2632.0642     -1513.0443     -558.39362      1559.7541      8896.3673     -5701.3364     -51.282883      0.69915924     67935.186    
     28600   298.05017      2508.6266     -1536.7743     -588.76176      1581.1321      8866.8432     -5763.2445     -50.568107      0.70230214     67631.166    
     28700   293.92407      2526.0126     -1535.7781     -586.46814      1514.2112      8853.4354     -5665.5749     -53.812924      0.70548999     67325.566    
     28800   303.93034      2390.3449     -1543.8173     -690.67874      1504.8927      8924.2972     -5753.6594     -50.689443      0.70839693     67049.292    
     28900   301.99976      2469.2358     -1542.9445     -675.43965      1559.5034      9005.4274     -5828.0983     -49.212609      0.71004246     66893.905    
     29000   299.98814      2620.6002     -1532.2818     -568.0658       1518.8038      8998.3859     -5742.7655     -53.476424      0.7109592      66807.649    
     29100   297.83448      2795.9444     -1556.9583     -468.79505      1596.6792      8950.8196     -5672.6581     -53.142822      0.71253021     66660.35     
     29200   303.08212      2484.4926     -1538.4102     -726.99346      1596.5183      8923.8174     -5715.9499     -54.489601      0.71397895     66525.088    
     29300   298.766        2581.8127     -1540.3081     -628.54164      1575.1217      8901.1376     -5672.7902     -52.806787      0.71557971     66376.271    
     29400   297.0942       2529.8034     -1551.2534     -608.11159      1580.573       8989.4886     -5829.6958     -51.197445      0.71679813     66263.444    
     29500   294.28855      2551.0767     -1537.6362     -608.10793      1569.9654      8896.3202     -5719.0468     -50.417936      0.71784547     66166.765    
     29600   297.44478      2676.8718     -1550.842      -525.42309      1590.773       8906.9028     -5689.0931     -55.445852      0.71919944     66042.199    
     29700   299.52497      2677.5379     -1542.174      -545.70198      1573.1482      8981.5353     -5735.4192     -53.850406      0.72157055     65825.182    
     29800   298.52902      2712.9238     -1595.1908     -533.0713       1610.4373      8991.6176     -5709.6735     -51.195495      0.72431054     65576.172    
     29900   301.83254      2563.3155     -1590.8006     -574.87057      1593.7738      8849.0618     -5662.6486     -51.200383      0.7269071      65341.93     
     30000   298.35274      2513.3885     -1591.9012     -582.14836      1543.6741      8889.0225     -5692.5692     -52.689331      0.73134091     64945.789    
     30051   294.95232      2514.3733     -1580.2918     -607.66755      1565.3421      8984.8453     -5793.5605     -54.294192      0.73412227     64699.73     
Loop time of 68.5119 on 6 procs for 10000 steps with 5021 atoms

Performance: 12.611 ns/day, 1.903 hours/ns, 145.960 timesteps/s, 732.866 katom-step/s
99.1% CPU use with 6 MPI tasks x no OpenMP threads

MPI task timing breakdown:
Section |  min time  |  avg time  |  max time  |%varavg| %total
---------------------------------------------------------------
Pair    | 18.971     | 23.894     | 29.497     |  80.5 | 34.88
Bond    | 16.594     | 23.791     | 31.758     | 109.9 | 34.72
Neigh   | 2.5026     | 2.5068     | 2.5112     |   0.2 |  3.66
Comm    | 3.7953     | 17.327     | 26.264     | 193.6 | 25.29
Output  | 0.0036639  | 0.0074762  | 0.026406   |   9.8 |  0.01
Modify  | 0.63977    | 0.6703     | 0.71971    |   3.4 |  0.98
Other   |            | 0.3158     |            |       |  0.46

Nlocal:        836.833 ave         937 max         684 min
Histogram: 1 1 0 0 0 0 1 0 0 3
Nghost:         7196.5 ave        7296 max        7048 min
Histogram: 1 0 0 0 1 0 2 0 0 2
Neighs:         241046 ave      284525 max      197866 min
Histogram: 1 2 0 0 0 0 0 1 0 2

Total # of neighbors = 1446279
Ave neighs/atom = 288.04601
Ave special neighs/atom = 10.874726
Neighbor list builds = 388
Dangerous builds = 0
unfix relax


molecule 	pre cleaned_pre-mol
Read molecule template pre:
  1 molecules
  0 fragments
  42 atoms with max type 5
  41 bonds with max type 4
  76 angles with max type 11
  105 dihedrals with max type 12
  48 impropers with max type 11
molecule	post cleaned_post-mol
Read molecule template post:
  1 molecules
  0 fragments
  42 atoms with max type 5
  41 bonds with max type 4
  76 angles with max type 11
  105 dihedrals with max type 12
  48 impropers with max type 11

fix		fxrct all bond/react stabilization yes statted_grp .03 		 react rxn1 all 100 0.0 10.0 pre post semi.map stabilize_steps 1000 molecule inter
dynamic group bond_react_MASTER_group defined
dynamic group statted_grp_REACT defined
fix 		1 statted_grp_REACT npt temp 300.0 300.0 100 iso 1.0 1.0 1000

fix 		4 bond_react_MASTER_group temp/rescale 1 300.0 300.0 1 1



thermo_style custom step temp pe evdwl ecoul ebond eangle edihed eimp density vol f_fxrct[1]
thermo          100


compute 1 all property/local btype batom1 batom2

compute 2 all stress/atom NULL
fix 5 all ave/atom 1 500 1000 c_2[*]


dump DumpPos all custom 1000 dump.pos id type x y z mol  f_5[*]
dump DumpBond all local 1000 bonds.dump index c_1[*]


run 200000

CITE-CITE-CITE-CITE-CITE-CITE-CITE-CITE-CITE-CITE-CITE-CITE-CITE

Your simulation uses code contributions which should be cited:

- fix bond/react: reacter.org doi:10.1016/j.polymer.2017.09.038, doi:10.1021/acs.macromol.0c02012

@Article{Gissinger17,
 author = {J. R. Gissinger and B. D. Jensen and K. E. Wise},
 title = {Modeling Chemical Reactions in Classical Molecular Dynamics Simulations},
 journal = {Polymer},
 year =    2017,
 volume =  128,
 pages =   {211--217}
}

@Article{Gissinger20,
 author = {J. R. Gissinger, B. D. Jensen, K. E. Wise},
 title = {{REACTER}: A Heuristic Method for Reactive Molecular Dynamics},
 journal = {Macromolecules},
 year =    2020,
 volume =  53,
 number =  22,
 pages =   {9953--9961}
}

CITE-CITE-CITE-CITE-CITE-CITE-CITE-CITE-CITE-CITE-CITE-CITE-CITE

Generated 15 of 15 mixed pair_coeff terms from sixthpower/geometric mixing rule
Neighbor list info ...
  update: every = 1 steps, delay = 0 steps, check = yes
  max neighbors/atom: 2000, page size: 100000
  master list distance cutoff = 12
  ghost atom cutoff = 12
  binsize = 6, bins = 7 7 7
  2 neighbor lists, perpetual/occasional/extra = 1 1 0
  (1) pair lj/class2/coul/cut, perpetual
      attributes: half, newton on
      pair build: half/bin/newton
      stencil: half/bin/3d
      bin: standard
  (2) fix bond/react, occasional, copy from (1)
      attributes: half, newton on
      pair build: copy
      stencil: none
      bin: none
Per MPI rank memory allocation (min/avg/max) = 40.84 | 41.03 | 41.13 Mbytes
   Step          Temp          PotEng         E_vdwl         E_coul         E_bond        E_angle        E_dihed        E_impro        Density         Volume       f_fxrct[1]  
     30051   294.95232      2514.3733     -1580.2918     -607.66755      1565.3421      8984.8453     -5793.5605     -54.294192      0.73412227     64699.73       0            
     30100   289.40948      572638.35      8393.5038     -550.11847      561912.45      8535.4402     -5601.8279     -51.102126      0.73431522     64682.729      5            
     30200   309.70248      525334.54      10234.528     -377.50842      512090.6       8970.8784     -5539.689      -44.262662      0.80976733     58655.754      10           
     30300   328.43177      871629.76      2386.6586     -494.19851      866343.58      8896.8401     -5453.385      -49.742022      0.87380991     54356.802      12           
     30400   354.26807      3665.4274     -1143.4307     -437.45688      1435.1322      9263.6188     -5398.4987     -53.937199      0.97871788     48530.341      12           
     30500   340.97217      374478.64      3196.5018     -554.82433      368715.51      8305.3431     -5140.2748     -43.609657      0.96478025     49231.432      14           
     30600   344.85476      288991.8       8176.1603     -628.4162       278105.42      8756.4252     -5374.9712     -42.813632      1.0215305      46496.422      18           
     30700   334.11488      48395.149      1021.1319     -602.40357      44608.582      8656.5758     -5243.0734     -45.663234      1.0612633      44755.635      19           
     30800   321.40082      2277.5054     -1345.4514     -678.13773      1173.1188      8354.0389     -5176.4539     -49.609224      1.0560709      44975.686      19           
     30900   309.78897      57765.192      1147.6086     -522.4531       54045.633      8366.0001     -5227.5321     -44.065407      1.0373904      45785.574      20           
     31000   308.62111      456904.87      7152.2573     -587.1767       447470.51      7897.2049     -4988.4757     -39.452696      1.0440003      45495.691      24           
     31100   322.22835      147812.17      1651.7126     -612.76749      143500.18      8455.8451     -5138.8881     -43.911055      1.107754       42877.311      25           
     31200   308.71773      107055.93      4507.4007     -556.69147      99740.098      8532.3943     -5124.1213     -43.154224      1.1333267      41909.814      27           
     31300   301.13907      257967.02      6003.8737     -508.39262      249602.46      8053.9393     -5146.0488     -38.813765      1.1423192      41579.897      30           
     31400   305.83153      155070.46      1719.0062     -395.39743      150696.23      8085.8566     -4995.9189     -39.323082      1.1809205      40220.755      31           
     31500   301.25355      2763.4568     -890.80408     -444.38225      996.37847      8039.6386     -4898.0403     -39.333607      1.2034411      39468.083      31           
     31600   292.96959      41019.01       2928.0516     -351.60699      35422.751      7916.9535     -4858.8307     -38.308535      1.1716188      40540.073      33           
     31700   291.44768      1946.3443     -1300.9336     -631.61923      984.97683      7843.5816     -4913.113      -36.548354      1.1543624      41146.102      33           
     31800   300.12721      1890.2844     -1445.2177     -590.18542      1016.633       7736.7786     -4788.9556     -38.768527      1.1270226      42144.242      33           
     31900   303.55471      1772.3612     -1531.2123     -738.00925      1071.1902      7688.4882     -4679.8221     -38.273729      1.1037733      43031.944      33           
     32000   303.25021      203849.23      1015.5274     -589.17257      200557.47      7852.8711     -4951.2534     -36.206566      1.0836078      43832.753      34           
     32100   308.18219      210701.5       3569.662      -472.75228      204254.89      8159.7861     -4774.3371     -35.755307      1.1276722      42119.966      36           
     32200   305.61724      99967.976      2992.1287     -639.47401      94505.284      7908.7801     -4764.3497     -34.392919      1.1651941      40763.606      38           
     32300   298.59067      63085.11       1473.4714     -773.86531      59361.996      7946.1624     -4884.6185     -38.036059      1.1716536      40538.869      39           
     32400   292.13623      1741.0931     -1323.4009     -868.27659      1049.9443      7730.995      -4813.5713     -34.597424      1.1681572      40660.208      39           
     32500   291.64059      142096.5       1494.872      -674.27369      138440.89      7614.5621     -4745.854      -33.69642       1.141293       41617.282      40           
     32600   311.60387      2346.8464     -1317.3802     -444.01285      1082.787       7777.5914     -4713.6278     -38.511193      1.1710684      40559.128      40           
     32700   302.43449      1858.341      -1439.4671     -770.18991      1108.4524      7742.7744     -4744.6574     -38.5713        1.1480405      41372.682      40           
     32800   300.86725      74669.208      830.25446     -815.17098      71832.86       7653.7143     -4799.2013     -33.248082      1.1248115      42227.088      41           
     32900   298.95328      60650.081      1345.732      -794.7934       57173.716      7798.2349     -4837.1621     -35.645868      1.1345671      41863.997      42           
     33000   299.61392      1510.4762     -1498.0991     -909.85194      1084.1638      7800.4654     -4929.021      -37.180903      1.1376637      41750.048      42           
     33100   299.77799      152396.68      451.52038     -740.41783      150002.11      7400.5101     -4680.0125     -37.020894      1.1148322      42605.079      43           
     33200   302.16088      70794.349      187.46163     -675.42346      68399.17       7577.6621     -4660.5102     -34.011727      1.1511331      41261.531      44           
     33300   297.65699      1669.3546     -1424.019      -794.32907      1169.3161      7491.5567     -4737.6493     -35.520823      1.1551154      41119.278      44           
     33400   295.2515       54384.969      253.98439     -677.72355      52087.253      7407.7416     -4650.2581     -36.028108      1.1323441      41946.182      45           
     33500   297.80889      209204.87      2677.6941     -777.67939      204537.48      7495.8143     -4688.954      -39.482298      1.1334322      41905.914      47           
     33600   311.79197      1813.6012     -1347.5326     -687.96371      1153.6703      7501.6693     -4771.3834     -34.858602      1.1762083      40381.888      47           
     33700   301.86165      103156.59      732.26225     -671.73962      100503.74      7410.9195     -4785.3225     -33.271883      1.154441       41143.302      48           
     33800   302.91199      1563.1803     -1472.8979     -684.03607      1136.0243      7292.2704     -4674.9149     -33.26535       1.1707582      40569.876      48           
     33900   294.448        1270.3481     -1518.4744     -858.2702       1122.8159      7361.3684     -4803.9443     -33.147292      1.1473413      41397.893      48           
     34000   291.15046      1221.7657     -1630.6618     -894.23287      1184.5113      7442.5866     -4844.771      -35.66661       1.1254395      42203.524      48           
     34100   303.39285      1126.4637     -1684.8354     -866.80021      1169.7897      7253.1022     -4711.3729     -33.419633      1.1063987      42929.833      48           
     34200   298.6414       173776.29      307.5222      -827.16449      171722.39      7296.1404     -4688.9664     -33.633949      1.0888943      43619.949      49           
     34300   308.66767      1623.8407     -1628.8596     -648.93688      1278.2081      7427.0838     -4767.9594     -35.695325      1.1301991      42025.791      49           
     34400   300.88939      1566.816      -1674.0017     -576.5716       1278.2288      7317.5534     -4742.9756     -35.417251      1.1156419      42574.156      49           
     34500   301.15575      1068.8525     -1766.837      -858.50063      1259.9044      7146.0846     -4675.6428     -36.156156      1.1000903      43176.012      49           
     34600   285.74074      1394.2668     -1754.3165     -646.31042      1302.2065      7316.6429     -4788.4588     -35.49691       1.0849586      43778.179      49           
     34700   295.30334      107574.08      3530.4438     -628.44805      102128.95      7237.8339     -4656.8188     -37.874129      1.0715069      44327.771      51           
     34800   301.81632      1385.2113     -1788.2061     -740.08226      1245.8579      7218.1983     -4515.7095     -34.847029      1.0992784      43207.902      51           
     34900   305.77584      90232.871      1112.4582     -738.05535      87401.257      7027.2663     -4533.9297     -36.124796      1.0868787      43700.842      52           
     35000   300.71865      1376.1439     -1768.1835     -744.05409      1259.1803      7267.7678     -4604.1788     -34.387739      1.1087528      42838.687      52           
     35100   301.21721      331371.81      3533.8569     -769.79902      326013.13      7340.9069     -4708.0024     -38.280409      1.0953281      43363.729      54           
     35200   307.32851      1768.22       -1587.9315     -717.30568      1296.5707      7534.0187     -4716.8267     -40.305539      1.1505009      41284.202      54           
     35300   296.49652      1319.8174     -1655.1297     -795.63433      1294.8695      7158.6001     -4644.9433     -37.944953      1.1351729      41841.653      54           
     35400   292.49321      995.08075     -1752.9968     -969.53979      1264.9636      7041.4799     -4555.3507     -33.475407      1.1182188      42476.045      54           
     35500   294.56168      1042.4523     -1761.3275     -901.4095       1273.4016      7108.9072     -4641.9778     -35.141637      1.1025574      43079.401      54           
[...]
    219700   300.78041      622.64546     -1851.0468     -652.64561      1701.3392      6117.1016     -4661.9876     -30.115241      0.96811851     49061.672      81           
    219800   302.14687      463.12096     -1834.105      -724.57005      1656.6906      6010.595      -4615.267      -30.222497      0.97397035     48766.898      81           
    219900   300.798        210.94992     -1875.6745     -900.61851      1591.667       6157.5882     -4729.131      -32.881166      0.97608437     48661.278      81           
    220000   297.66212      172.21155     -1863.384      -1003.3175      1663.5063      6034.2323     -4628.695      -30.130559      0.9753217      48699.329      81           
    220100   297.14754      187.2811      -1855.2993     -1041.9335      1681.4163      6008.7482     -4574.4287     -31.221813      0.97253237     48839.005      81           
    220200   303.6602       305.91744     -1840.7663     -888.37092      1658.4919      6042.5724     -4635.0578     -30.951834      0.96883963     49025.155      81           
    220300   301.40778      384.40223     -1859.602      -863.54912      1717.3795      6030.1256     -4607.3897     -32.562005      0.96811178     49062.013      81           
    220400   305.22675      410.61338     -1881.2464     -661.82971      1620.2031      5960.293      -4600.0062     -26.80036       0.96932406     49000.654      81           
    220500   300.35459      319.12753     -1865.3296     -750.67897      1676.8632      5937.3556     -4650.4033     -28.67943       0.96779682     49077.979      81           
    220600   295.22615      250.77702     -1855.464      -907.51963      1673.0671      5990.5688     -4618.7497     -31.12562       0.96772538     49081.603      81           
    220700   301.38762      494.85651     -1843.6217     -678.70217      1668.3171      6132.518      -4750.7257     -32.929067      0.96947713     48992.917      81           
    220800   303.18593      376.27365     -1835.191      -806.04804      1624.3675      5964.591      -4538.9309     -32.514803      0.96917103     49008.391      81           
    220900   297.07589      519.70879     -1857.781      -745.63411      1677.5485      6158.7517     -4681.9241     -31.252142      0.96776332     49079.678      81           
    221000   302.20928      324.08338     -1844.9553     -827.5747       1629.903       6108.638      -4708.0724     -33.855218      0.9659691      49170.841      81           
    221100   297.75379      82.243087     -1834.2124     -1116.7104      1641.1017      6048.7457     -4622.7788     -33.902686      0.96405167     49268.638      81           
    221200   297.68994      276.29474     -1829.1665     -926.65777      1684.2399      5892.423      -4513.0802     -31.46367       0.96213026     49367.029      81           
    221300   295.33812      382.1574      -1833.5109     -866.89558      1663.7171      6100.3154     -4646.628      -34.840626      0.96038089     49456.953      81           
    221400   307.11633      435.97494     -1840.1954     -774.72945      1711.3075      6003.0639     -4632.0893     -31.382287      0.96038674     49456.652      81           
    221500   301.23074      522.17738     -1833.9875     -790.71956      1703.2067      6144.132      -4665.9588     -34.495418      0.96308504     49318.088      81           
    221600   299.63142      371.93756     -1854.0863     -864.36102      1663.7979      5989.6974     -4532.6122     -30.498237      0.96944986     48994.295      81           
    221700   299.99633      255.89524     -1840.3843     -880.38634      1646.9151      6031.4306     -4666.1498     -35.530169      0.97543613     48693.617      81           
    221800   300.64046      332.92208     -1894.6646     -773.8285       1601.4425      5993.8537     -4569.9881     -23.892923      0.97915682     48508.586      81           
    221900   294.57941      498.49726     -1880.737      -701.25857      1652.0875      6121.0984     -4662.1756     -30.51743       0.98111329     48411.853      81           
    222000   301.41567      391.53125     -1883.4744     -837.70527      1703.8683      6126.3106     -4685.0597     -32.408259      0.98050393     48441.94       81           
    222100   304.85633      348.83421     -1865.219      -858.73609      1685.2714      5994.3754     -4580.7734     -26.084069      0.97601414     48664.779      81           
    222200   306.05004      286.95311     -1862.7404     -808.13028      1615.433       6034.8112     -4658.8044     -33.616002      0.96923196     49005.31       81           
    222300   296.59921      513.12635     -1850.4279     -675.98684      1690.7577      5985.653      -4606.1421     -30.727483      0.96288362     49328.405      81           
    222400   301.47992      435.80603     -1858.1249     -677.22555      1637.4214      5924.7426     -4559.4511     -31.556553      0.95889143     49533.775      81           
    222500   302.08813      347.09383     -1854.8983     -783.92252      1635.5633      6036.4432     -4656.6289     -29.46286       0.95816052     49571.561      81           
    222600   297.16408      355.27979     -1825.4757     -871.93084      1657.9022      6093.1184     -4664.993      -33.34136       0.95945113     49504.88       81           
    222700   305.34593      443.32003     -1856.7287     -730.71766      1665.9311      6016.3005     -4618.6312     -32.833996      0.96223142     49361.839      81           
    222800   303.74672      674.86907     -1823.5761     -675.07424      1735.6432      6113.2255     -4643.551      -31.798272      0.96468592     49236.245      81           
    222900   311.95323      490.9952      -1849.6546     -696.83448      1705.6708      6075.2485     -4709.0416     -34.393343      0.96520177     49209.931      81           
    223000   302.56581      566.9051      -1842.1914     -674.0339       1677.1313      6123.4147     -4685.524      -31.891614      0.96447508     49247.009      81           
    223100   303.49358      207.92577     -1864.3786     -929.69114      1648.6403      6075.3023     -4692.4543     -29.492801      0.96554782     49192.295      81           
    223200   299.24473      312.09188     -1872.3166     -810.22603      1627.956       5994.07       -4597.6483     -29.743199      0.96776169     49079.761      81           
    223300   300.96094      126.29417     -1870.2064     -924.45797      1611.2333      6044.0538     -4702.2332     -32.095404      0.97012622     48960.137      81           
    223400   297.26161      397.35043     -1875.1081     -767.26403      1674.3851      6043.5593     -4643.2902     -34.931648      0.97193591     48868.976      81           
    223500   297.3343       464.77748     -1867.3138     -826.75573      1671.0199      6207.8316     -4689.3827     -30.621838      0.97352804     48789.055      81           
    223600   301.03949      414.92542     -1856.121      -828.42401      1641.9098      6088.7896     -4598.9933     -32.235696      0.97306785     48812.128      81           
    223700   298.80739      505.92521     -1880.3678     -686.95962      1663.7717      6053.5109     -4611.7963     -32.233628      0.97156808     48887.477      81           
    223800   302.98411      290.73859     -1877.8571     -791.1934       1606.0918      6022.4624     -4639.027      -29.738184      0.97048677     48941.948      81           
    223900   299.94447      98.615406     -1884.1789     -1039.1804      1689.9678      6099.0794     -4735.0725     -31.999993      0.96989861     48971.627      81           
    224000   304.29118      165.55452     -1913.5857     -916.22626      1642.89        6015.9276     -4631.0106     -32.440582      0.97136986     48897.454      81           
    224100   300.76398      358.03586     -1890.1853     -814.78301      1669.1632      6061.2041     -4638.7521     -28.611087      0.97312777     48809.123      81           
    224200   303.27399      228.83519     -1877.6742     -898.0269       1665.0762      5962.5577     -4593.6303     -29.467291      0.97359685     48785.607      81           
    224300   294.64461      198.73263     -1878.3275     -969.13192      1615.8523      6118.6599     -4658.0365     -30.283626      0.97371085     48779.895      81           
    224400   295.33238      297.87928     -1914.2953     -821.6558       1657.3134      6084.7263     -4678.086      -30.12329       0.9734745      48791.738      81           
    224500   302.58595      331.89509     -1861.8506     -774.41368      1612.933       6000.6119     -4615.6736     -29.711993      0.97303111     48813.971      81           
    224600   304.12811      294.09857     -1866.7417     -867.77699      1659.5158      6102.9355     -4700.3171     -33.516959      0.97040568     48946.037      81           
    224700   302.66609      151.01392     -1863.4489     -1035.6788      1664.8961      6099.2716     -4682.1037     -31.922449      0.96691082     49122.951      81           
    224800   302.05864      245.92858     -1857.5619     -942.67436      1641.2764      6027.2067     -4589.2753     -33.043036      0.9654546      49197.044      81           
    224900   297.19476      329.09388     -1852.825      -837.89845      1634.6461      6039.5692     -4623.8973     -30.500637      0.96600051     49169.242      81           
    225000   298.35897      282.79777     -1880.5146     -790.47111      1654.7374      5986.4827     -4659.3583     -28.078312      0.96864134     49035.19       81           
    225100   295.36441      238.21513     -1897.4183     -879.82877      1605.6656      6070.261      -4627.4239     -33.040478      0.97190022     48870.77       81           
    225200   299.06841      175.81577     -1866.7596     -998.1204       1633.641       6087.0378     -4649.5927     -30.390345      0.97660736     48635.219      81           
    225300   298.66547      467.70024     -1864.5354     -756.74956      1713.6531      6086.3695     -4676.0621     -34.97535       0.97813741     48559.141      81           
    225400   299.82145      474.2939      -1893.6244     -709.57649      1650.9102      6034.2347     -4577.4217     -30.228466      0.97722819     48604.321      81           
    225500   296.42799      585.58836     -1869.4724     -619.3508       1662.5942      6157.5567     -4714.2959     -31.443393      0.97593514     48668.719      81           
    225600   296.61992      354.94467     -1827.5669     -795.73887      1649.8435      6018.7319     -4662.7628     -27.562093      0.97096859     48917.661      81           
    225700   296.41136      325.14058     -1898.3773     -782.09023      1626.2879      6005.2554     -4595.3481     -30.58717       0.96721743     49107.379      81           
    225800   292.70957      316.42785     -1884.8604     -812.89211      1601.1287      6053.2314     -4610.2013     -29.978541      0.96542259     49198.675      81           
    225900   296.71998      370.63779     -1858.4007     -833.135        1641.4424      6091.0484     -4637.1669     -33.150272      0.96560177     49189.546      81           
    226000   299.85631      445.64641     -1814.6267     -757.90543      1652.664       6114.4922     -4716.4749     -32.502726      0.96559316     49189.985      81           
    226100   300.12853      409.55262     -1858.5639     -789.13         1662.5162      6061.874      -4637.3529     -29.790795      0.96456182     49242.58       81           
    226200   300.21839      339.93822     -1867.1375     -818.61222      1677.614       6013.3753     -4634.3443     -30.957047      0.96420358     49260.875      81           
    226300   296.53544      410.34553     -1889.1514     -703.2013       1629.3635      6056.182      -4647.7153     -35.131928      0.96544203     49197.685      81           
    226400   298.87397      350.62745     -1861.2648     -726.24965      1642.2871      5992.9771     -4666.5184     -30.603851      0.96996243     48968.405      81           
    226500   307.68139      409.26384     -1885.095      -659.20203      1631.3676      6026.2581     -4672.0498     -32.015009      0.97348383     48791.27       81           
    226600   301.0878       427.12184     -1875.8721     -764.96399      1653.7201      6072.8788     -4622.2776     -36.363368      0.97462254     48734.264      81           
    226700   302.77017      325.27409     -1868.6714     -818.51725      1633.3365      6077.7991     -4663.7538     -34.918997      0.97277781     48826.682      81           
    226800   295.28905      254.19189     -1867.3699     -935.41687      1668.125       6003.7804     -4583.9307     -30.995994      0.97106323     48912.894      81           
    226900   297.26558      282.37636     -1872.7455     -817.76619      1608.5761      6045.177      -4651.6068     -29.258164      0.9698155      48975.823      81           
    227000   295.46233      376.19109     -1866.0893     -666.54658      1582.1968      6035.7808     -4676.8292     -32.321359      0.96859302     49037.637      81           
    227100   293.46349      123.22947     -1882.637      -963.29744      1633.0127      5962.3769     -4593.8849     -32.340787      0.9680529      49064.997      81           
    227200   295.93031      216.91838     -1876.9227     -983.54884      1713.0523      5989.3674     -4590.1911     -34.838701      0.9681516      49059.995      81           
    227300   303.35413      476.02337     -1881.805      -660.56667      1634.7567      6084.3985     -4671.8545     -28.905625      0.9677819      49078.737      81           
    227400   301.482        274.41741     -1878.3038     -922.96985      1652.3528      6108.6228     -4650.9169     -34.367521      0.96728138     49104.132      81           
    227500   303.52784      409.17206     -1877.9009     -705.53753      1601.1942      6084.425      -4661.3214     -31.687241      0.9669763      49119.624      81           
    227600   301.31295      218.20621     -1876.8859     -842.8952       1541.2035      5956.609      -4525.1443     -34.680946      0.96871866     49031.277      81           
    227700   298.35891      188.12876     -1860.4811     -873.81293      1559.7972      6097.9986     -4704.844      -30.528961      0.97044651     48943.978      81           
    227800   295.55962      291.17307     -1879.7445     -855.38464      1656.5317      6040.2169     -4637.3061     -33.140299      0.9722758      48851.892      81           
    227900   306.39229      365.44268     -1869.6213     -755.68622      1665.3471      6010.3708     -4652.9455     -32.022296      0.97351307     48789.805      81           
    228000   304.0837       227.91573     -1854.3208     -932.52235      1649.402       6001.9983     -4603.4924     -33.149057      0.97096266     48917.96       81           
    228100   298.12556      360.90959     -1884.0037     -829.27677      1691.8843      6007.6532     -4593.7682     -31.579216      0.96929897     49001.922      81           
    228200   298.58226      284.02977     -1847.8411     -830.07119      1606.6363      5982.9327     -4596.8704     -30.756529      0.96905951     49014.031      81           
    228300   297.99674      404.52605     -1875.9806     -659.19987      1626.2943      6039.227      -4691.9012     -33.913652      0.96606931     49165.74       81           
    228400   299.16503      265.49264     -1894.7305     -849.14335      1634.4106      5946.2351     -4539.0513     -32.227945      0.96608328     49165.029      81           
    228500   301.05486      389.08921     -1848.8485     -812.48008      1648.3141      6034.137      -4598.062      -33.971345      0.96849825     49042.435      81           
    228600   301.11199      354.01194     -1842.7815     -852.42088      1658.631       6081.4852     -4659.8866     -31.015302      0.97043629     48944.494      81           
    228700   298.9474       346.27695     -1863.5972     -848.69122      1683.4364      6062.3995     -4656.6051     -30.665326      0.97220994     48855.202      81           
    228800   296.32496      470.15267     -1896.2499     -643.08229      1603.1169      6081.477      -4646.3964     -28.712613      0.97300259     48815.402      81           
    228900   297.90872      450.41648     -1875.0478     -644.51693      1608.5566      6000.2431     -4607.1494     -31.669124      0.97295755     48817.662      81           
    229000   299.74733      481.46705     -1872.6673     -695.26991      1646.8278      6050.1654     -4616.3343     -31.254661      0.9700135      48965.826      81           
    229100   304.40088      351.48107     -1886.1401     -798.79787      1629.4867      6023.0317     -4586.4311     -29.668316      0.96719957     49108.286      81           
    229200   301.67726      160.57366     -1850.2565     -1011.6204      1613.3834      6149.6032     -4709.2413     -31.294769      0.96410512     49265.906      81           
    229300   300.10998      276.66412     -1865.6575     -887.33219      1634.1836      6038.9107     -4614.6837     -28.756725      0.960931       49428.64       81           
    229400   297.6667       194.83346     -1889.2269     -940.91931      1684.4949      6043.3356     -4672.5771     -30.273662      0.96067273     49441.929      81           
    229500   296.47179      373.90424     -1859.3734     -766.98569      1557.8654      6170.7956     -4696.0514     -32.346228      0.96326115     49309.071      81           
    229600   303.36645      129.86832     -1892.4098     -1037.2411      1629.8106      6158.9978     -4698.066      -31.2231        0.96488975     49225.844      81           
    229700   307.33647      248.82516     -1857.9661     -909.79569      1625.7239      5990.1159     -4569.274      -29.978763      0.96735666     49100.311      81           
    229800   301.05774      384.07569     -1859.5241     -786.70505      1670.465       5964.1908     -4572.3466     -32.004403      0.96778859     49078.397      81           
    229900   294.26899      466.78711     -1847.9423     -744.4001       1650.2964      5997.1585     -4555.4985     -32.826785      0.96697014     49119.937      81           
    230000   297.58826      334.33548     -1863.9145     -839.67194      1691.262       6044.8867     -4667.0046     -31.22222       0.9662381      49157.151      81           
    230051   299.6789       455.22196     -1831.9359     -707.57461      1685.7496      5973.135      -4634.1762     -29.975871      0.9660351      49167.481      81           
Loop time of 2082.69 on 6 procs for 200000 steps with 5021 atoms

Performance: 8.297 ns/day, 2.893 hours/ns, 96.030 timesteps/s, 482.166 katom-step/s
98.5% CPU use with 6 MPI tasks x no OpenMP threads

MPI task timing breakdown:
Section |  min time  |  avg time  |  max time  |%varavg| %total
---------------------------------------------------------------
Pair    | 904.47     | 933.67     | 947.69     |  48.4 | 44.83
Bond    | 553.13     | 576.05     | 594.34     |  65.3 | 27.66
Neigh   | 63.345     | 63.558     | 63.856     |   2.0 |  3.05
Comm    | 196.35     | 221.77     | 245.93     | 111.6 | 10.65
Output  | 1.9724     | 2.0592     | 2.4444     |  12.0 |  0.10
Modify  | 264.43     | 268.63     | 271.32     |  17.1 | 12.90
Other   |            | 16.94      |            |       |  0.81

Nlocal:        836.833 ave         859 max         807 min
Histogram: 1 1 0 0 0 1 0 0 2 1
Nghost:        8679.83 ave        8720 max        8661 min
Histogram: 3 0 0 1 1 0 0 0 0 1
Neighs:         304216 ave      314820 max      294783 min
Histogram: 1 0 0 2 0 1 1 0 0 1

Total # of neighbors = 1825295
Ave neighs/atom = 363.53216
Ave special neighs/atom = 11.2619
Neighbor list builds = 7779
Dangerous builds = 0

Total wall time: 0:37:55
