 read_data           ${fname}
 read_data           tes.data
Reading data file ...
  orthogonal box = (0 0 0) to (158.5 158.5 100)
  2 by 3 by 1 MPI processor grid
  reading atoms ...
  100 atoms
  scanning bonds ...
  1 = max bonds/atom
  scanning angles ...
  1 = max angles/atom
  scanning dihedrals ...
  1 = max dihedrals/atom
  reading bonds ...
  99 bonds
  reading angles ...
  98 angles
  reading dihedrals ...
  97 dihedrals
Finding 1-2 1-3 1-4 neighbors ...
  special bond factors lj:    0        0        0       
  special bond factors coul:  0        0        0       
     2 = max # of 1-2 neighbors
     2 = max # of 1-3 neighbors
     4 = max # of 1-4 neighbors
     6 = max # of special neighbors
  special bonds CPU = 0.001 seconds
  read_data CPU = 0.008 seconds
special_bonds lj/coul 0.0 0.0 0.0

 # Dreiding potential information
 neighbor            0.4 bin
 neigh_modify        every 10 one 10000
 bond_style          harmonic
 bond_coeff          1 350 1.53
 angle_style         harmonic
 angle_coeff         1 60 109.5
 dihedral_style      multi/harmonic
 dihedral_coeff      1 1.73 -4.49 0.776 6.99 0.0
 pair_style          lj/cut 10.5
 pair_coeff          1 1 0.112 4.01 10.5

minimize 0.0 1.0e-8 1000 100000
Switching to 'neigh_modify every 1 delay 0 check yes' setting during minimization
Generated 0 of 0 mixed pair_coeff terms from geometric mixing rule
Neighbor list info ...
  update: every = 1 steps, delay = 0 steps, check = yes
  max neighbors/atom: 10000, page size: 100000
  master list distance cutoff = 10.9
  ghost atom cutoff = 10.9
  binsize = 5.45, bins = 30 30 19
  1 neighbor lists, perpetual/occasional/extra = 1 0 0
  (1) pair lj/cut, perpetual
      attributes: half, newton on
      pair build: half/bin/newton
      stencil: half/bin/3d
      bin: standard
Per MPI rank memory allocation (min/avg/max) = 7.905 | 8.142 | 8.488 Mbytes
   Step          Temp          E_pair         E_mol          TotEng         Press     
         0   0             -0.53878186     30648.143      30647.604     -1266.3614    
      1000   0             -12.578002      1.0848528     -11.493149     -0.65124305   
Loop time of 0.0434223 on 6 procs for 1000 steps with 100 atoms

91.4% CPU use with 6 MPI tasks x no OpenMP threads

Minimization stats:
  Stopping criterion = max iterations
  Energy initial, next-to-last, final = 
      30647.6043628844  -11.4931280005093  -11.4931489094768
  Force two-norm initial, final = 6079.6618 9.3703391
  Force max component initial, final = 1198.5053 2.5283681
  Final line search alpha, max atom move = 0.019769479 0.049984519
  Iterations, force evaluations = 1000 2393

MPI task timing breakdown:
Section |  min time  |  avg time  |  max time  |%varavg| %total
---------------------------------------------------------------
Pair    | 0.00010557 | 0.0023401  | 0.0040306  |   3.4 |  5.39
Bond    | 0.00016943 | 0.0045316  | 0.0074199  |   4.7 | 10.44
Neigh   | 0.0029496  | 0.0030435  | 0.0031524  |   0.1 |  7.01
Comm    | 0.002085   | 0.0087584  | 0.012515   |   5.0 | 20.17
Output  | 1.7583e-05 | 2.0807e-05 | 3.6539e-05 |   0.0 |  0.05
Modify  | 0          | 0          | 0          |   0.0 |  0.00
Other   |            | 0.02473    |            |       | 56.95

Nlocal:        16.6667 ave          30 max           0 min
Histogram: 2 0 0 0 0 0 1 1 0 2
Nghost:           12.5 ave          26 max           0 min
Histogram: 2 0 0 0 2 0 0 0 0 2
Neighs:        78.3333 ave         151 max           0 min
Histogram: 2 0 0 0 1 0 1 0 0 2

Total # of neighbors = 470
Ave neighs/atom = 4.7
Ave special neighs/atom = 5.88
Neighbor list builds = 212
Dangerous builds = 0


 bond_style          morse
 bond_coeff          1  85 2.2 1.53
 fix                 2 all nvt temp 300 300 100
 timestep            1.0

group sub id 1
1 atoms in group sub
group sub2 id 100
1 atoms in group sub2
fix new sub move linear 0.001 0 0
fix new2 sub2 move linear -0.001 0 0
fix breakk all bond/break 10 1 4.0

 thermo_style        custom step temp  f_breakk[*]
thermo              100

dump 4a all custom 1000 dump.pos id type x y z

 run 1000000
Generated 0 of 0 mixed pair_coeff terms from geometric mixing rule
WARNING: One or more atoms are time integrated more than once (../modify.cpp:292)
Per MPI rank memory allocation (min/avg/max) = 8.032 | 9.087 | 9.616 Mbytes
   Step          Temp       f_breakk[1]    f_breakk[2]  
      1000   0              0              0            
      1100   1.0747784      0              0            
      1200   2.5318054      0              0            
      1300   5.4714185      0              0            
      1400   11.646182      0              0            
      1500   18.525735      0              0            
      1600   30.021651      0              0            
      1700   58.14451       0              0            
      1800   122.7938       0              0            
      1900   240.51877      0              0            
      2000   319.54238      0              0            
      2100   293.152        0              0            
      2200   266.16882      0              0            
      2300   277.74409      0              0            
      2400   328.21347      0              0            
      2500   348.99919      0              0            
      2600   332.33242      0              0            
      2700   298.47921      0              0            
      2800   271.28234      0              0            
      2900   272.99653      0              0            
      3000   259.60238      0              0            
      3100   283.12666      0              0            
      3200   344.89716      0              0            
      3300   369.07163      0              0            
      3400   290.99508      0              0            
      3500   268.80894      0              0            
      3600   275.91074      0              0            
      3700   337.35011      0              0            
      3800   313.98518      0              0            
      3900   327.15427      0              0            
      4000   276.85013      0              0            
      4100   294.82479      0              0            
      4200   274.2104       0              0            
      4300   330.62364      0              0            
      4400   300.25201      0              0            
      4500   314.20159      0              0            
      4600   296.09959      0              0            
      4700   319.34823      0              0            
      4800   282.15077      0              0            
      4900   289.87076      0              0            
      5000   304.40826      0              0            
      5100   346.83432      0              0            
      5200   303.62121      0              0            
      5300   311.33156      0              0            
      5400   244.72564      0              0            
      5500   303.15116      0              0            
      5600   317.1974       0              0            
      5700   337.00517      0              0            
      5800   292.12763      0              0            
      5900   283.49756      0              0            
      6000   313.29016      0              0            
      6100   312.53791      0              0            
      6200   316.62438      0              0            
      6300   267.21663      0              0            
      6400   310.36567      0              0            
      6500   281.37161      0              0            
      6600   295.75458      0              0            
      6700   328.64809      0              0            
      6800   308.05534      0              0            
      6900   307.70746      0              0            
      7000   292.77413      0              0            
      7100   279.84585      0              0            
      7200   261.89851      0              0            
      7300   265.37799      0              0            
      7400   329.86199      0              0            
      7500   294.4075       0              0            
      7600   315.70135      0              0            
      7700   292.46633      0              0            
      7800   326.32763      0              0            
      7900   279.12705      0              0            
      8000   312.03936      0              0            
      8100   377.94734      0              0            
      8200   263.20801      0              0            
      8300   281.71541      0              0            
      8400   276.53538      0              0            
      8500   316.45376      0              0            
      8600   305.76621      0              0            
      8700   313.19222      0              0            
      8800   309.34902      0              0            
      8900   313.41632      0              0            
      9000   274.85467      0              0            
      9100   270.24945      0              0            
      9200   304.18296      0              0            
      9300   298.23216      0              0            
      9400   254.93471      0              0            
      9500   287.68622      0              0            
      9600   258.84308      0              0            
      9700   235.94386      0              0            
      9800   291.94149      0              0            
      9900   292.83248      0              0            
     10000   315.50789      0              0            
     10100   334.2541       0              0            
     10200   272.80251      0              0            
     10300   289.89092      0              0            
     10400   356.19796      0              0            
     10500   307.39937      0              0            
     10600   291.76695      0              0            
     10700   304.61722      0              0            
     10800   279.65446      0              0            
     10900   276.29141      0              0            
     11000   308.2184       0              0            
     11100   276.53395      0              0            
     11200   252.35063      0              0            
     11300   253.75411      0              0            
     11400   341.02611      0              0            
     11500   331.63253      0              0            
     11600   306.12115      0              0            
     11700   285.60761      0              0            
     11800   282.18987      0              0            
     11900   316.65998      0              0            
     12000   318.57339      0              0            
     12100   346.06075      0              0            
     12200   288.81663      0              0            
     12300   333.31449      0              0            
     12400   297.32635      0              0            
     12500   272.93134      0              0            
     12600   316.54372      0              0            
     12700   335.12789      0              0            
     12800   287.40884      0              0            
     12900   253.12293      0              0            
     13000   326.26141      0              0            
     13100   302.41904      0              0            
     13200   279.11949      0              0            
     13300   306.93391      0              0            
     13400   297.83324      0              0            
     13500   346.13735      0              0            
     13600   274.68804      0              0            
     13700   299.22014      0              0            
     13800   242.19084      0              0            
     13900   315.27786      0              0            
     14000   325.76343      0              0            
     14100   351.16839      0              0            
     14200   308.74506      0              0            
     14300   298.4716       0              0            
     14400   257.50987      0              0            
     14500   327.03706      0              0            
     14600   364.81498      0              0            
     14700   331.90417      0              0            
     14800   308.63624      0              0            
     14900   273.09127      0              0            
     15000   290.05028      0              0            
     15100   322.09249      0              0            
     15200   400.62506      0              0            
     15300   314.2451       0              0            
     15400   300.28945      0              0            
     15500   285.99713      0              0            
     15600   278.94641      0              0            
     15700   345.63688      0              0            
     15800   311.79637      0              0            
     15900   294.10445      0              0            
     16000   260.41663      0              0            
     16100   284.67778      0              0            
     16200   317.52849      0              0            
     16300   313.41221      0              0            
     16400   291.48384      0              0            
     16500   315.17177      0              0            
     16600   253.40392      0              0            
     16700   271.39025      0              0            
     16800   293.9854       0              0            
     16900   300.01512      0              0            
     17000   291.32649      0              0            
     17100   336.08265      0              0            
     17200   270.55493      0              0            
     17300   289.14194      0              0            
     17400   263.89694      0              0            
     17500   270.0374       0              0            
     17600   311.30727      0              0            
     17700   308.07538      0              0            
     17800   349.86859      0              0            
     17900   294.31614      0              0            
     18000   271.97148      0              0            
     18100   271.7785       0              0            
     18200   316.85434      0              0            
     18300   269.02777      0              0            
     18400   264.4384       0              0            
     18500   312.90747      0              0            
     18600   303.57739      0              0            
     18700   316.36828      0              0            
     18800   300.4791       0              0            
     18900   317.42639      0              0            
     19000   269.28452      0              0            
     19100   300.14355      0              0            
     19200   299.66007      0              0            
     19300   298.8491       0              0            
     19400   305.41867      0              0            
     19500   305.23112      0              0            
     19600   278.55558      0              0            
     19700   316.89012      0              0            
     19800   308.36156      0              0            
     19900   298.54854      0              0            
     20000   328.48804      0              0            
     20100   303.66034      0              0            
     20200   286.94095      0              0            
     20300   274.36333      0              0            
     20400   316.40335      0              0            
     20500   333.14753      0              0            
     20600   329.45657      0              0            
     20700   283.49362      0              0            
     20800   259.70491      0              0            
     20900   306.22309      0              0            
     21000   263.54593      0              0            
     21100   341.60963      0              0            
     21200   272.20274      0              0            
     21300   284.5567       0              0            
     21400   267.13509      0              0            
     21500   332.82731      0              0            
     21600   315.88804      0              0            
     21700   267.75855      0              0            
     21800   303.85795      0              0            
     21900   275.57058      0              0            
     22000   299.26061      0              0            
     22100   332.76755      0              0            
     22200   307.30686      0              0            
     22300   282.05751      0              0            
     22400   343.96299      0              0            
     22500   275.86992      0              0            
     22600   258.94842      0              0            
     22700   287.23116      0              0            
     22800   295.98612      0              0            
     22900   271.76009      0              0            
     23000   312.92494      0              0            
     23100   256.99345      0              0            
     23200   293.90037      0              0            
     23300   238.45892      0              0            
     23400   304.51421      0              0            
     23500   296.57382      0              0            
     23600   291.71044      0              0            
     23700   270.52564      0              0            
     23800   266.08589      0              0            
     23900   301.72187      0              0            
     24000   297.20172      0              0            
     24100   333.00619      0              0            
     24200   287.0597       0              0            
     24300   279.89113      0              0            
     24400   294.49578      0              0            
     24500   308.00368      0              0            
     24600   280.79937      0              0            
     24700   306.35786      0              0            
     24800   271.92752      0              0            
     24900   272.50368      0              0            
     25000   334.41031      0              0            
     25100   328.9805       0              0            
     25200   299.5776       0              0            
     25300   276.34514      0              0            
     25400   251.93426      0              0            
     25500   261.2647       0              0            
     25600   297.73536      0              0            
     25700   309.30047      0              0            
     25800   308.9683       0              0            
     25900   301.87538      0              0            
     26000   331.24619      0              0            
     26100   306.93168      0              0            
     26200   269.2717       0              0            
     26300   320.96445      0              0            
     26400   293.54985      0              0            
     26500   339.26513      0              0            
     26600   297.28351      0              0            
     26700   288.48391      0              0            
     26800   284.55119      0              0            
     26900   335.62221      0              0            
     27000   316.88932      0              0            
     27100   303.69731      0              0            
     27200   272.35193      0              0            
     27300   271.11747      0              0            
     27400   320.54407      0              0            
     27500   319.6987       0              0            
     27600   285.72865      0              0            
     27700   310.29892      0              0            
     27800   273.60605      0              0            
     27900   271.10414      0              0            
     28000   254.93609      0              0            
     28100   304.05646      0              0            
     28200   282.17128      0              0            
     28300   329.66613      0              0            
     28400   304.08755      0              0            
     28500   273.99289      0              0            
     28600   272.10885      0              0            
     28700   293.25939      0              0            
     28800   316.07977      0              0            
     28900   317.82071      0              0            
     29000   267.65033      0              0            
     29100   272.51793      0              0            
     29200   286.66547      0              0            
     29300   290.42415      0              0            
     29400   282.66567      0              0            
     29500   316.72543      0              0            
     29600   269.26979      0              0            
     29700   280.85288      0              0            
     29800   303.14926      0              0            
     29900   300.76107      0              0            
     30000   313.36225      0              0            
     30100   307.48398      0              0            
     30200   288.91662      0              0            
     30300   267.01215      0              0            
     30400   249.91792      0              0            
     30500   311.88879      0              0            
     30600   319.60395      0              0            
     30700   333.52893      0              0            
     30800   295.15289      0              0            
     30900   280.53645      0              0            
     31000   287.05687      0              0            
     31100   288.03417      0              0            
     31200   286.21654      0              0            
     31300   303.76072      0              0            
     31400   326.14876      0              0            
     31500   306.77041      0              0            
     31600   316.57934      0              0            
     31700   352.8427       0              0            
     31800   313.57222      0              0            
     31900   302.26971      0              0            
     32000   279.2576       0              0            
     32100   308.44485      0              0            
     32200   277.84656      0              0            
     32300   310.84784      0              0            
     32400   292.75958      0              0            
     32500   323.86915      0              0            
     32600   366.67293      0              0            
     32700   319.52514      0              0            
     32800   300.76426      0              0            
     32900   276.02954      0              0            
     33000   303.12704      0              0            
     33100   313.06531      0              0            
     33200   306.15831      0              0            
     33300   286.66223      0              0            
     33400   239.95417      0              0            
     33500   292.21124      0              0            
     33600   297.71341      0              0            
     33700   293.46405      0              0            
     33800   305.01055      0              0            
     33900   267.78296      0              0            
     34000   278.30553      0              0            
     34100   289.74107      0              0            
     34200   299.65708      0              0            
     34300   305.16836      0              0            
     34400   317.72404      0              0            
     34500   303.88005      0              0            
     34600   279.57396      0              0            
     34700   288.48893      0              0            
     34800   307.52889      0              0            
     34900   287.48556      0              0            
     35000   302.77269      0              0            
     35100   283.57756      0              0            
     35200   269.49584      0              0            
     35300   246.04218      0              0            
     35400   280.77242      0              0            
     35500   292.36797      0              0            
     35600   338.46856      0              0            
     35700   330.82332      0              0            
     35800   275.0251       0              0            
     35900   262.55263      0              0            
     36000   303.19524      0              0            
     36100   320.37452      0              0            
     36200   334.27503      0              0            
     36300   302.69611      0              0            
     36400   302.47466      0              0            
     36500   266.23052      0              0            
     36600   304.61634      0              0            
     36700   355.14191      0              0            
     36800   287.90165      0              0            
     36900   296.59951      0              0            
     37000   302.66847      0              0            
     37100   299.5006       0              0            
     37200   288.20999      0              0            
     37300   299.9274       0              0            
     37400   347.1191       0              0            
     37500   310.25825      0              0            
     37600   285.52714      0              0            
     37700   289.76341      0              0            
     37800   262.88652      0              0            
     37900   281.5791       0              0            
     38000   310.8698       0              0            
     38100   351.40984      0              0            
     38200   304.49679      0              0            
     38300   285.43335      0              0            
     38400   315.76313      0              0            
     38500   285.66761      0              0            
     38600   304.33916      0              0            
     38700   298.67422      0              0            
     38800   305.84749      0              0            
     38900   314.07469      0              0            
     39000   294.82741      0              0            
     39100   278.80402      0              0            
     39200   286.25086      0              0            
     39300   326.97367      0              0            
     39400   316.25081      0              0            
     39500   303.94392      0              0            
     39600   287.47556      0              0            
     39700   339.18722      0              0            
     39800   251.29953      0              0            
     39900   271.83088      0              0            
     40000   284.01977      0              0            
     40100   272.49718      0              0            
     40200   321.00838      0              0            
     40300   286.05977      0              0            
     40400   252.32393      0              0            
     40500   260.49338      0              0            
     40600   370.45615      0              0            
     40700   337.11266      0              0            
     40800   292.33391      0              0            
     40900   280.97827      0              0            
     41000   283.52825      0              0            
     41100   363.2881       0              0            
     41200   301.56397      0              0            
     41300   272.98726      0              0            
     41400   313.22886      0              0            
     41500   267.47778      0              0            
     41600   317.50091      0              0            
     41700   306.20448      0              0            
     41800   309.29191      0              0            
     41900   297.11554      0              0            
     42000   287.25704      0              0            
     42100   271.53338      0              0            
     42200   318.30209      0              0            
     42300   313.17532      0              0            
     42400   296.32138      0              0            
     42500   314.36918      0              0            
     42600   361.09456      0              0            
     42700   318.80564      0              0            
     42800   311.90012      0              0            
     42900   291.72268      0              0            
     43000   287.17604      0              0            
     43100   345.51984      0              0            
     43200   306.15753      0              0            
     43300   325.94225      0              0            
     43400   275.60488      0              0            
     43500   272.95704      0              0            
     43600   289.34763      0              0            
     43700   343.53222      0              0            
     43800   324.00531      0              0            
     43900   324.02348      0              0            
     44000   283.58933      0              0            
     44100   280.37233      0              0            
     44200   333.49817      0              0            
     44300   284.28521      0              0            
     44400   251.61058      0              0            
     44500   271.34801      0              0            
     44600   295.17178      0              0            
     44700   298.72828      0              0            
     44800   294.38507      0              0            
     44900   326.10018      0              0            
     45000   280.92782      0              0            
     45100   238.04537      0              0            
     45200   256.62526      0              0            
     45300   250.28231      0              0            
     45400   300.79061      0              0            
     45500   318.72955      0              0            
     45600   344.04451      0              0            
     45700   309.18292      0              0            
     45800   289.04151      0              0            
     45900   261.91561      0              0            
     46000   268.95314      0              0            
     46100   265.59369      0              0            
     46200   296.73294      0              0            
     46300   282.75073      0              0            
     46400   319.8149       0              0            
     46500   311.53553      0              0            
     46600   313.13449      0              0            
     46700   307.10394      0              0            
     46800   307.92583      0              0            
     46900   320.22179      0              0            
     47000   289.86834      0              0            
     47100   259.51261      0              0            
     47200   284.15605      0              0            
     47300   266.56224      0              0            
     47400   305.78626      0              0            
     47500   262.21083      0              0            
     47600   277.3766       0              0            
     47700   285.06888      0              0            
     47800   297.81961      0              0            
     47900   333.0536       0              0            
     48000   313.62624      0              0            
     48100   337.60121      0              0            
     48200   297.31341      0              0            
     48300   250.81933      0              0            
     48400   310.31343      0              0            
     48500   299.34266      0              0            
     48600   317.18539      0              0            
     48700   318.67556      0              0            
     48800   315.05005      0              0            
     48900   294.80986      0              0            
     49000   305.1398       0              0            
     49100   299.12536      0              0            
     49200   300.47208      0              0            
     49300   289.03154      0              0            
     49400   293.70632      0              0            
     49500   312.40119      0              0            
     49600   293.51192      0              0            
     49700   294.42771      0              0            
     49800   278.30396      0              0            
     49900   313.16733      0              0            
     50000   342.83827      0              0            
     50100   339.05749      0              0            
     50200   296.75948      0              0            
     50300   263.47297      0              0            
     50400   268.92025      0              0            
     50500   311.5829       0              0            
     50600   289.4824       0              0            
     50700   316.39236      0              0            
     50800   300.30255      0              0            
     50900   310.40482      0              0            
     51000   310.96698      0              0            
     51100   359.79119      0              0            
     51200   315.24892      0              0            
     51300   310.08036      0              0            
     51400   321.68389      0              0            
     51500   328.22852      0              0            
     51600   284.86655      0              0            
     51700   248.96308      0              0            
     51800   304.38039      0              0            
     51900   310.64976      0              0            
     52000   293.47443      0              0            
     52100   255.02006      0              0            
     52200   273.6762       0              0            
     52300   282.65511      0              0            
     52400   306.81478      0              0            
     52500   261.03298      0              0            
     52600   308.78825      0              0            
     52700   315.09029      0              0            
     52800   279.5188       0              0            
     52900   261.77198      0              0            
     53000   259.93419      0              0            
     53100   318.58327      0              0            
     53200   289.7448       0              0            
     53300   309.20158      0              0            
     53400   328.70404      0              0            
     53500   300.45162      0              0            
     53600   271.39316      0              0            
     53700   280.04631      0              0            
     53800   284.26487      0              0            
     53900   296.3272       0              0            
     54000   305.97911      0              0            
     54100   282.25612      0              0            
     54200   293.29007      0              0            
     54300   340.81501      0              0            
     54400   327.55148      0              0            
     54500   311.61123      0              0            
     54600   298.45201      0              0            
     54700   300.36063      0              0            
     54800   314.78326      0              0            
     54900   268.07051      0              0            
     55000   331.62795      0              0            
     55100   275.17181      0              0            
     55200   290.44982      0              0            
     55300   307.78388      0              0            
     55400   271.22864      0              0            
     55500   310.99693      0              0            
     55600   302.40517      0              0            
     55700   298.58481      0              0            
     55800   273.35116      0              0            
     55900   288.61064      0              0            
     56000   293.24396      0              0            
     56100   290.00821      0              0            
     56200   318.92713      0              0            
     56300   300.92103      0              0            
     56400   315.38582      0              0            
     56500   283.22914      0              0            
     56600   274.77877      0              0            
     56700   267.52166      0              0            
     56800   349.79661      0              0            
     56900   326.6535       0              0            
     57000   348.63034      0              0            
     57100   296.32027      0              0            
     57200   329.44732      0              0            
     57300   286.71147      0              0            
     57400   347.42315      0              0            
     57500   350.68071      0              0            
     57600   302.12378      0              0            
     57700   275.40609      0              0            
     57800   282.53147      0              0            
     57900   353.71753      0              0            
     58000   291.15435      0              0            
     58100   370.33423      0              0            
     58200   293.69252      0              0            
     58300   273.08512      0              0            
     58400   288.18821      0              0            
     58500   326.68554      0              0            
     58600   278.11738      0              0            
     58700   290.84152      0              0            
     58800   276.04967      0              0            
     58900   320.56598      0              0            
     59000   298.61931      0              0            
     59100   311.70192      0              0            
     59200   359.86659      0              0            
     59300   342.28593      0              0            
     59400   319.49479      0              0            
     59500   314.10477      0              0            
     59600   280.37333      0              0            
     59700   315.98147      0              0            
     59800   330.65736      0              0            
     59900   299.92267      0              0            
     60000   275.64726      0              0            
     60100   300.97801      0              0            
     60200   317.61163      0              0            
     60300   360.24837      0              0            
     60400   313.23027      0              0            
     60500   271.7579       0              0            
     60600   304.23654      0              0            
     60700   289.59569      0              0            
     60800   300.52609      0              0            
     60900   348.13109      0              0            
     61000   233.28613      0              0            
     61100   286.42505      0              0            
     61200   293.36539      0              0            
     61300   297.0056       0              0            
     61400   301.69332      0              0            
     61500   306.79324      0              0            
     61600   291.82492      0              0            
     61700   367.59745      0              0            
     61800   331.38492      0              0            
     61900   319.81166      0              0            
     62000   286.91929      0              0            
     62100   269.72616      0              0            
     62200   328.01197      0              0            
     62300   347.69654      0              0            
     62400   290.93643      0              0            
     62500   330.30749      0              0            
     62600   314.4926       0              0            
     62700   285.28423      0              0            
     62800   248.29019      0              0            
     62900   248.46814      0              0            
     63000   288.3728       0              0            
     63100   291.4438       0              0            
     63200   329.47392      0              0            
     63300   268.1894       0              0            
     63400   306.66898      0              0            
     63500   343.63614      0              0            
     63600   330.81103      0              0            
     63700   325.63589      0              0            
     63800   294.66546      0              0            
     63900   285.5523       0              0            
     64000   298.36665      0              0            
     64100   281.20105      0              0            
     64200   313.01689      0              0            
     64300   376.89638      0              0            
     64400   307.91995      0              0            
     64500   284.45759      0              0            
     64600   281.56862      0              0            
     64700   279.26578      0              0            
     64800   316.46465      0              0            
     64900   330.18637      0              0            
     65000   291.30524      0              0            
     65100   276.34474      0              0            
     65200   302.07838      0              0            
     65300   339.86724      0              0            
     65400   276.0197       0              0            
     65500   256.56246      0              0            
     65600   239.23608      0              0            
     65700   276.30191      0              0            
     65800   310.63895      0              0            
     65900   297.72728      0              0            
     66000   282.52456      0              0            
     66100   270.35451      0              0            
     66200   245.57533      0              0            
     66300   302.84229      0              0            
     66400   273.08248      0              0            
     66500   311.72507      0              0            
     66600   306.51761      0              0            
     66700   336.66011      0              0            
     66800   369.00752      0              0            
     66900   301.33809      0              0            
     67000   308.46982      0              0            
     67100   274.40327      0              0            
     67200   277.66678      0              0            
     67300   294.37505      0              0            
     67400   298.50746      0              0            
     67500   319.01513      0              0            
     67600   286.89149      0              0            
     67700   293.70543      0              0            
     67800   297.66035      0              0            
     67900   287.42842      0              0            
     68000   252.19905      0              0            
     68100   285.71281      0              0            
     68200   318.67242      0              0            
     68300   319.64169      0              0            
     68400   274.26625      0              0            
     68500   285.46505      0              0            
     68600   299.15693      0              0            
     68700   270.52123      0              0            
     68800   275.90246      0              0            
     68900   303.26304      0              0            
     69000   348.1373       0              0            
     69100   292.71145      0              0            
     69200   328.55995      0              0            
     69300   327.95543      0              0            
     69400   279.51066      0              0            
     69500   285.25299      0              0            
     69600   313.23063      0              0            
     69700   316.8037       0              0            
     69800   333.28511      0              0            
     69900   330.35122      0              0            
     70000   312.25056      0              0            
     70100   259.27768      0              0            
     70200   310.4609       0              0            
     70300   313.02014      0              0            
     70400   345.81496      0              0            
     70500   307.34547      0              0            
     70600   280.10308      0              0            
     70700   318.82143      0              0            
     70800   295.36297      0              0            
     70900   299.71265      0              0            
     71000   307.49274      0              0            
     71100   267.85596      0              0            
     71200   294.88852      0              0            
     71300   282.70265      0              0            
     71400   349.98451      0              0            
     71500   285.36048      0              0            
     71600   324.31826      0              0            
     71700   321.03597      0              0            
     71800   346.76023      0              0            
     71900   289.07671      0              0            
     72000   276.8576       0              0            
     72100   275.83902      0              0            
     72200   292.50344      0              0            
     72300   336.9666       0              0            
     72400   300.60642      0              0            
     72500   310.34414      0              0            
     72600   300.51671      0              0            
     72700   278.81547      0              0            
     72800   275.84115      0              0            
     72900   317.54113      0              0            
     73000   302.06084      0              0            
     73100   266.85745      0              0            
     73200   260.94983      0              0            
     73300   272.35932      0              0            
     73400   307.6262       0              0            
     73500   306.33565      0              0            
     73600   287.40488      0              0            
     73700   296.61561      0              0            
     73800   325.03466      0              0            
     73900   306.08986      0              0            
     74000   316.06091      0              0            
     74100   289.62183      0              0            
     74200   281.78137      0              0            
     74300   275.94529      0              0            
     74400   272.15888      0              0            
     74500   280.25746      0              0            
     74600   324.04097      0              0            
     74700   323.33808      0              0            
     74800   304.95668      0              0            
     74900   277.4862       0              0            
     75000   332.90772      0              0            
     75100   303.0711       0              0            
     75200   347.08126      0              0            
     75300   264.14465      0              0            
     75400   282.51415      0              0            
     75500   271.59877      0              0            
     75600   316.42374      0              0            
     75700   334.93541      0              0            
     75800   321.52977      0              0            
     75900   289.18819      0              0            
     76000   280.36643      0              0            
     76100   298.87043      0              0            
     76200   300.31637      0              0            
     76300   317.12229      0              0            
     76400   316.03372      0              0            
     76500   311.90337      0              0            
     76600   294.17481      0              0            
     76700   296.4747       0              0            
     76800   327.20833      0              0            
     76900   298.2341       0              0            
     77000   244.29378      0              0            
     77100   259.64463      0              0            
     77200   343.65621      0              0            
     77300   315.24933      0              0            
     77400   316.6157       0              0            
     77500   303.29467      0              0            
     77600   285.03694      0              0            
     77700   289.98003      0              0            
     77800   310.90865      0              0            
     77900   322.3014       0              0            
     78000   281.19011      0              0            
     78100   278.26869      0              0            
     78200   275.55238      0              0            
     78300   279.93944      0              0            
     78400   297.70815      0              0            
     78500   273.20947      0              0            
     78600   314.75526      0              0            
     78700   282.36098      0              0            
     78800   319.65255      0              0            
     78900   312.94624      0              0            
     79000   301.31178      0              0            
     79100   297.25756      0              0            
     79200   287.65934      0              0            
     79300   337.32208      0              0            
     79400   316.62084      0              0            
     79500   281.19102      0              0            
     79600   296.63092      0              0            
     79700   305.82372      0              0            
     79800   260.01419      0              0            
     79900   309.71082      0              0            
     80000   368.22767      0              0            
     80100   298.76816      0              0            
     80200   284.13257      0              0            
     80300   302.73179      0              0            
     80400   327.57282      0              0            
     80500   290.58456      0              0            
     80600   274.97291      0              0            
     80700   292.53763      0              0            
     80800   295.88746      0              0            
     80900   271.11895      0              0            
     81000   319.30504      0              0            
     81100   282.832        0              0            
     81200   276.42293      0              0            
     81300   268.20241      0              0            
     81400   270.08791      0              0            
     81500   271.48174      0              0            
     81600   304.63058      0              0            
     81700   315.35352      0              0            
     81800   284.55414      0              0            
     81900   311.01004      0              0            
     82000   312.61627      0              0            
     82100   305.2634       0              0            
     82200   285.70992      0              0            
     82300   289.89183      0              0            
     82400   308.65365      0              0            
     82500   343.61779      0              0            
     82600   355.88848      0              0            
     82700   308.9159       0              0            
     82800   290.94099      0              0            
     82900   309.56655      0              0            
     83000   307.74449      0              0            
     83100   277.79388      0              0            
     83200   311.52204      0              0            
     83300   332.32365      0              0            
     83400   293.28216      0              0            
     83500   319.96993      0              0            
     83600   247.86965      0              0            
     83700   287.73511      0              0            
     83800   269.47674      0              0            
     83900   277.59415      0              0            
     84000   296.15587      0              0            
     84100   333.13658      0              0            
     84200   274.38686      0              0            
     84300   270.86727      0              0            
     84400   296.77198      0              0            
     84500   262.61312      0              0            
     84600   350.79189      0              0            
     84700   312.82547      0              0            
     84800   302.34547      0              0            
     84900   283.5006       0              0            
     85000   328.62429      0              0            
     85100   346.51528      0              0            
     85200   328.98274      0              0            
     85300   311.09222      0              0            
     85400   266.96322      0              0            
     85500   287.85333      0              0            
     85600   279.37235      0              0            
     85700   273.31885      0              0            
     85800   278.58757      0              0            
     85900   345.74043      0              0            
     86000   317.78601      0              0            
     86100   318.54393      0              0            
     86200   288.92486      0              0            
     86300   257.39069      0              0            
     86400   301.16455      0              0            
     86500   303.03596      0              0            
     86600   334.7108       0              0            
     86700   306.92125      0              0            
     86800   281.19787      0              0            
     86900   316.01113      0              0            
     87000   289.58617      0              0            
     87100   258.62578      0              0            
     87200   227.719        0              0            
     87300   276.94386      0              0            
     87400   317.18825      0              0            
     87500   275.15073      0              0            
     87600   337.086        0              0            
     87700   317.35905      0              0            
     87800   272.10775      0              0            
     87900   294.47975      0              0            
     88000   328.00802      0              0            
     88100   316.97305      0              0            
     88200   324.77537      0              0            
     88300   275.25855      0              0            
     88400   294.25314      0              0            
     88500   308.44025      0              0            
     88600   296.90328      0              0            
     88700   365.67086      0              0            
     88800   318.47948      0              0            
     88900   316.91596      0              0            
     89000   282.98841      0              0            
     89100   301.32154      0              0            
     89200   289.15394      0              0            
     89300   354.32684      0              0            
     89400   280.2147       0              0            
     89500   318.5021       0              0            
     89600   268.42159      0              0            
     89700   346.98517      0              0            
     89800   317.00148      0              0            
     89900   281.3099       0              0            
     90000   294.79706      0              0            
     90100   307.98137      0              0            
     90200   247.90087      0              0            
     90300   301.28974      0              0            
     90400   313.18476      0              0            
     90500   310.14529      0              0            
     90600   295.40495      0              0            
     90700   290.74596      0              0            
     90800   270.61777      0              0            
     90900   315.55571      0              0            
     91000   312.7673       0              0            
     91100   304.141        0              0            
     91200   283.04044      0              0            
     91300   329.29747      0              0            
     91400   393.45333      0              0            
     91500   300.86936      0              0            
     91600   305.81659      0              0            
     91700   281.81495      0              0            
     91800   296.03658      0              0            
     91900   305.48576      0              0            
     92000   275.0119       0              0            
     92100   389.66884      0              0            
     92200   270.19283      0              0            
     92300   290.89398      0              0            
     92400   302.37068      0              0            
     92500   313.92576      0              0            
     92600   341.81031      0              0            
     92700   288.53532      0              0            
     92800   295.91939      0              0            
     92900   296.01772      0              0            
     93000   346.39883      0              0            
     93100   303.22651      0              0            
     93200   352.79143      0              0            
     93300   295.7223       0              0            
     93400   288.08314      0              0            
     93500   291.55723      0              0            
     93600   312.9133       0              0            
     93700   330.70051      0              0            
     93800   355.67288      0              0            
     93900   265.52854      0              0            
     94000   315.0811       0              0            
     94100   285.2896       0              0            
     94200   331.26507      0              0            
     94300   290.15548      0              0            
     94400   259.39305      0              0            
     94500   319.0818       0              0            
     94600   295.97057      0              0            
     94700   346.33945      0              0            
     94800   367.11481      0              0            
     94900   291.32052      0              0            
     95000   251.43255      0              0            
     95100   298.06975      0              0            
     95200   287.28678      0              0            
     95300   378.83132      0              0            
     95400   317.79285      0              0            
     95500   341.96002      0              0            
     95600   293.4841       0              0            
     95700   293.85928      0              0            
     95800   299.45649      0              0            
     95900   326.45589      0              0            
     96000   259.52186      0              0            
     96100   322.93328      0              0            
     96200   311.73765      0              0            
     96300   294.50262      0              0            
     96400   324.83473      0              0            
     96500   285.19135      0              0            
     96600   317.31528      0              0            
     96700   293.55871      0              0            
     96800   296.68249      0              0            
     96900   269.53073      0              0            
     97000   320.28167      0              0            
     97100   256.43852      0              0            
     97200   338.92884      0              0            
     97300   292.25489      0              0            
     97400   291.56737      0              0            
     97500   287.88073      0              0            
     97600   300.80342      0              0            
     97700   326.64477      0              0            
     97800   344.6208       0              0            
     97900   297.84261      0              0            
     98000   300.36729      0              0            
     98100   266.75911      0              0            
     98200   290.88625      0              0            
     98300   312.26748      0              0            
     98400   334.88053      0              0            
     98500   277.4756       0              0            
     98600   291.49745      0              0            
     98700   297.5697       0              0            
     98800   285.01178      0              0            
     98900   317.85469      0              0            
     99000   338.53189      0              0            
     99100   326.54082      0              0            
     99200   296.49073      0              0            
     99300   293.29594      0              0            
     99400   315.52198      0              0            
     99500   283.33668      0              0            
     99600   299.53536      0              0            
     99700   283.88066      0              0            
     99800   285.58407      0              0            
     99900   288.40361      0              0            
    100000   308.91708      0              0            
    100100   316.35308      0              0            
    100200   351.47711      0              0            
    100300   338.8351       0              0            
    100400   304.35678      0              0            
    100500   296.70265      0              0            
    100600   265.43682      0              0            
    100700   342.20601      0              0            
    100800   274.09632      0              0            
    100900   344.95466      0              0            
    101000   290.10616      0              0            
    101100   230.82274      0              0            
    101200   315.86116      0              0            
    101300   269.95006      0              0            
    101400   314.25642      0              0            
    101500   314.84088      0              0            
    101600   308.56963      0              0            
    101700   268.58502      0              0            
    101800   280.88         0              0            
    101900   302.3979       0              0            
    102000   276.29841      0              0            
    102100   322.44369      0              0            
    102200   313.71179      0              0            
    102300   285.77324      0              0            
    102400   288.40643      0              0            
    102500   292.65562      0              0            
    102600   310.51764      0              0            
    102700   298.35198      0              0            
    102800   328.98242      0              0            
    102900   306.36233      0              0            
    103000   332.37787      0              0            
    103100   306.19843      0              0            
    103200   285.85276      0              0            
    103300   285.12327      0              0            
    103400   314.27001      0              0            
    103500   315.30842      0              0            
    103600   306.5145       0              0            
    103700   299.74208      0              0            
    103800   285.1224       0              0            
    103900   224.58683      0              0            
    104000   270.77177      0              0            
    104100   280.46249      0              0            
    104200   307.84565      0              0            
    104300   353.59328      0              0            
    104400   268.65457      0              0            
    104500   301.94839      0              0            
    104600   301.10479      0              0            
    104700   279.45945      0              0            
    104800   294.17678      0              0            
    104900   288.7692       0              0            
    105000   314.43317      0              0            
    105100   313.96951      0              0            
    105200   275.00921      0              0            
    105300   287.25986      0              0            
    105400   288.63123      0              0            
    105500   283.90105      0              0            
    105600   334.65792      0              0            
    105700   273.06587      0              0            
    105800   314.74433      0              0            
    105900   265.02121      0              0            
    106000   245.31815      0              0            
    106100   315.27579      0              0            
    106200   297.86975      0              0            
    106300   288.95102      0              0            
    106400   320.62189      0              0            
    106500   247.19928      0              0            
    106600   299.44752      0              0            
    106700   477.08139      0              1            
    106800   635.60042      0              1            
    106900   616.86591      0              1            
    107000   571.66026      0              1            
    107100   669.73016      1              2            
    107200   694.621        0              2            
    107300   641.57161      0              2            
    107400   506.672        0              2            
    107500   387.74152      0              2            
    107600   312.87131      0              2            
    107700   271.62525      0              2            
    107800   252.1189       0              2            
    107900   246.58592      0              2            
    108000   224.484        0              2            
    108100   223.70469      0              2            
    108200   357.27625      0              2            
    108300   428.5444       0              2            
    108400   285.15268      0              2            
    108500   217.94732      0              2            
    108600   270.43867      0              2            
    108700   334.7686       0              2            
    108800   348.31301      0              2            
    108900   313.41712      0              2            
    109000   257.95659      0              2            
    109100   284.20242      0              2            
    109200   316.46225      0              2            
    109300   297.2985       0              2            
    109400   323.49707      0              2            
    109500   336.45064      0              2            
    109600   264.31313      0              2            
    109700   284.75013      0              2            
    109800   285.48938      0              2            
    109900   304.69993      0              2            
    110000   319.1321       0              2            
    110100   289.50616      0              2            
    110200   303.93581      0              2            
    110300   353.46853      0              2            
    110400   294.59729      0              2            
    110500   268.40906      0              2            
    110600   285.21991      0              2            
    110700   310.79938      0              2            
    110800   313.41647      0              2            
    110900   318.20013      0              2            
    111000   291.22349      0              2            
    111100   319.77219      0              2            
    111200   310.83705      0              2            
    111300   274.35701      0              2            
    111400   254.48822      0              2            
    111500   290.07396      0              2            
    111600   320.64392      0              2            
    111700   325.72037      0              2            
    111800   272.18696      0              2            
    111900   277.18553      0              2            
    112000   339.52874      0              2            
    112100   341.00893      0              2            
    112200   296.81736      0              2            
    112300   274.34023      0              2            
    112400   316.3037       0              2            
    112500   318.55434      0              2            
    112600   324.05006      0              2            
    112700   247.6311       0              2            
    112800   293.65481      0              2            
    112900   279.96612      0              2            
    113000   304.37179      0              2            
    113100   301.20717      0              2            
    113200   276.83718      0              2            
    113300   274.33067      0              2            
    113400   253.82848      0              2            
    113500   230.80532      0              2            
    113600   289.48777      0              2            
    113700   301.39137      0              2            
    113800   312.13308      0              2            
    113900   323.40318      0              2            
    114000   333.1156       0              2            
    114100   306.93772      0              2            
    114200   263.47125      0              2            
    114300   296.86558      0              2            
    114400   314.98741      0              2            
    114500   318.87637      0              2            
    114600   328.21284      0              2            
    114700   261.06533      0              2            
    114800   275.0537       0              2            
    114900   328.67801      0              2            
    115000   284.47175      0              2            
    115100   289.51715      0              2            
    115200   300.56318      0              2            
    115300   260.15359      0              2            
    115400   271.56314      0              2            
    115500   275.71152      0              2            
    115600   293.29501      0              2            
    115700   302.90946      0              2            
    115800   309.90774      0              2            
    115900   270.2742       0              2            
    116000   279.97905      0              2            
    116100   338.77265      0              2            
    116200   361.78368      0              2            
    116300   306.05544      0              2            
    116400   265.59139      0              2            
    116500   318.66098      0              2            
    116600   320.71357      0              2            
    116700   303.04053      0              2            
    116800   253.47987      0              2            
    116900   323.6141       0              2            
    117000   312.29827      0              2            
    117100   283.44802      0              2            
    117200   268.42035      0              2            
    117300   313.85605      0              2            
    117400   339.73138      0              2            
    117500   286.91607      0              2            
    117600   295.82311      0              2            
    117700   312.92205      0              2            
    117800   297.56772      0              2            
    117900   265.8795       0              2            
    118000   265.76096      0              2            
    118100   285.52837      0              2            
    118200   316.70088      0              2            
    118300   299.72301      0              2            
    118400   296.09922      0              2            
    118500   277.92893      0              2            
    118600   288.49954      0              2            
    118700   279.40063      0              2            
    118800   241.38672      0              2            
    118900   275.23885      0              2            
    119000   268.0045       0              2            
    119100   308.16983      0              2            
    119200   276.30753      0              2            
    119300   279.84831      0              2            
    119400   258.52858      0              2            
    119500   280.02191      0              2            
    119600   265.52067      0              2            
    119700   303.7716       0              2            
    119800   282.98564      0              2            
    119900   284.55567      0              2            
    120000   259.06746      0              2            
    120100   265.33188      0              2            
    120200   300.31861      0              2            
    120300   334.78902      0              2            
    120400   308.93096      0              2            
    120500   307.6961       0              2            
    120600   254.24348      0              2            
    120700   248.09023      0              2            
    120800   341.17617      0              2            
    120900   320.95468      0              2            
    121000   297.96177      0              2            
    121100   243.34363      0              2            
    121200   281.70786      0              2            
    121300   344.59764      0              2            
    121400   331.10996      0              2            
    121500   318.60139      0              2            
    121600   318.87767      0              2            
    121700   274.90616      0              2            
    121800   258.33326      0              2            
    121900   360.62857      0              2            
    122000   315.172        0              2            
    122100   326.08453      0              2            
    122200   303.63251      0              2            
    122300   259.05689      0              2            
    122400   288.48446      0              2            
    122500   322.26171      0              2            
    122600   324.52515      0              2            
    122700   289.07666      0              2            
    122800   306.63053      0              2            
    122900   282.99704      0              2            
    123000   305.38237      0              2            
    123100   327.75056      0              2            
    123200   341.25495      0              2            
    123300   308.46805      0              2            
    123400   301.38421      0              2            
    123500   294.86396      0              2            
    123600   324.38865      0              2            
    123700   268.541        0              2            
    123800   311.64304      0              2            
    123900   275.33012      0              2            
    124000   305.27613      0              2            
    124100   280.24238      0              2            
    124200   320.49311      0              2            
    124300   319.56588      0              2            
    124400   291.1289       0              2            
    124500   290.67424      0              2            
    124600   295.4115       0              2            
    124700   303.73973      0              2            
    124800   306.716        0              2            
    124900   332.63152      0              2            
    125000   334.74597      0              2            
    125100   336.17328      0              2            
    125200   264.95627      0              2            
    125300   302.91635      0              2            
    125400   320.42347      0              2            
    125500   336.04665      0              2            
    125600   339.30813      0              2            
    125700   299.01359      0              2            
    125800   253.41591      0              2            
    125900   315.95149      0              2            
    126000   308.05524      0              2            
    126100   310.97333      0              2            
    126200   304.20621      0              2            
    126300   281.01435      0              2            
    126400   299.34618      0              2            
    126500   330.37383      0              2            
    126600   332.29639      0              2            
    126700   288.16783      0              2            
    126800   255.20969      0              2            
    126900   296.83965      0              2            
    127000   304.65189      0              2            
    127100   291.98614      0              2            
    127200   298.92184      0              2            
    127300   277.53243      0              2            
    127400   302.97051      0              2            
    127500   322.63844      0              2            
    127600   285.33765      0              2            
    127700   266.03425      0              2            
    127800   306.59895      0              2            
    127900   281.82954      0              2            
    128000   325.1805       0              2            
    128100   304.15205      0              2            
    128200   272.39557      0              2            
    128300   276.11808      0              2            
    128400   299.78843      0              2            
    128500   353.85277      0              2            
    128600   361.6849       0              2            
    128700   303.94583      0              2            
    128800   320.71794      0              2            
    128900   285.37448      0              2            
    129000   309.54861      0              2            
    129100   300.37799      0              2            
    129200   362.45931      0              2            
    129300   329.47027      0              2            
    129400   320.21827      0              2            
    129500   283.14256      0              2            
    129600   303.22387      0              2            
    129700   288.58554      0              2            
    129800   300.42901      0              2            
    129900   340.97423      0              2            
    130000   318.53732      0              2            
    130100   261.53234      0              2            
    130200   294.97386      0              2            
    130300   338.79095      0              2            
    130400   333.51911      0              2            
    130500   296.83928      0              2            
    130600   283.27709      0              2            
    130700   238.06137      0              2            
    130800   281.53737      0              2            
    130900   253.68379      0              2            
    131000   310.58785      0              2            
    131100   296.97685      0              2            
    131200   315.49852      0              2            
    131300   331.78219      0              2            
    131400   272.02861      0              2            
    131500   265.22343      0              2            
    131600   316.13958      0              2            
    131700   265.27501      0              2            
    131800   342.45573      0              2            
    131900   281.36973      0              2            
    132000   278.64973      0              2            
    132100   305.12926      0              2            
    132200   321.71234      0              2            
    132300   312.23835      0              2            
    132400   303.21334      0              2            
    132500   273.45953      0              2            
    132600   315.39796      0              2            
    132700   358.23358      0              2            
    132800   306.1079       0              2            
    132900   303.16011      0              2            
    133000   230.77363      0              2            
    133100   302.92543      0              2            
    133200   283.79271      0              2            
    133300   301.23713      0              2            
    133400   269.97134      0              2            
    133500   315.69411      0              2            
[...]
    661700   284.96107      0              2            
    661800   293.29417      0              2            
    661900   315.59235      0              2            
    662000   328.58131      0              2            
    662100   292.53837      0              2            
    662200   286.65443      0              2            
    662300   325.67276      0              2            
    662400   327.82034      0              2            
    662500   327.77101      0              2            
    662600   306.76141      0              2            
    662700   330.60629      0              2            
    662800   271.63228      0              2            
    662900   322.30956      0              2            
    663000   349.56293      0              2            
    663100   297.53243      0              2            
    663200   295.47222      0              2            
    663300   305.56815      0              2            
    663400   293.98316      0              2            
    663500   334.69961      0              2            
    663600   330.38509      0              2            
    663700   288.38529      0              2            
    663800   277.1377       0              2            
    663900   313.76417      0              2            
    664000   293.02876      0              2            
    664100   284.43832      0              2            
    664200   275.22977      0              2            
    664300   299.33401      0              2            
    664400   343.52244      0              2            
    664500   264.39867      0              2            
    664600   278.22593      0              2            
    664700   279.16561      0              2            
    664800   302.66073      0              2            
    664900   286.25474      0              2            
    665000   300.29955      0              2            
    665100   339.68744      0              2            
    665200   340.43555      0              2            
    665300   301.56056      0              2            
    665400   313.01462      0              2            
    665500   257.53319      0              2            
    665600   268.57431      0              2            
    665700   290.82011      0              2            
    665800   311.65433      0              2            
    665900   266.70343      0              2            
    666000   334.53558      0              2            
    666100   289.87028      0              2            
    666200   298.38654      0              2            
    666300   313.6609       0              2            
    666400   352.8205       0              2            
    666500   331.60492      0              2            
    666600   293.42792      0              2            
    666700   327.75622      0              2            
    666800   296.19111      0              2            
    666900   310.73047      0              2            
    667000   314.98435      0              2            
    667100   263.32259      0              2            
    667200   265.60029      0              2            
    667300   297.73881      0              2            
    667400   286.39863      0              2            
    667500   331.71582      0              2            
    667600   352.98247      0              2            
    667700   315.0664       0              2            
    667800   313.04295      0              2            
    667900   295.8922       0              2            
    668000   277.83408      0              2            
    668100   316.05285      0              2            
    668200   353.12957      0              2            
    668300   321.471        0              2            
    668400   296.8485       0              2            
    668500   285.40203      0              2            
    668600   316.75825      0              2            
    668700   339.63793      0              2            
    668800   352.95755      0              2            
    668900   317.43767      0              2            
    669000   297.45547      0              2            
    669100   272.30635      0              2            
    669200   336.34357      0              2            
    669300   310.95499      0              2            
    669400   299.06865      0              2            
    669500   309.57767      0              2            
    669600   298.75154      0              2            
    669700   299.03585      0              2            
    669800   340.62844      0              2            
    669900   298.33507      0              2            
    670000   308.66528      0              2            
    670100   277.37936      0              2            
    670200   319.12514      0              2            
    670300   274.72353      0              2            
    670400   319.66494      0              2            
    670500   268.4162       0              2            
    670600   281.9245       0              2            
    670700   286.08441      0              2            
    670800   276.39121      0              2            
    670900   308.77111      0              2            
    671000   293.62306      0              2            
    671100   318.43107      0              2            
    671200   333.12787      0              2            
    671300   301.90403      0              2            
    671400   256.46874      0              2            
    671500   271.11914      0              2            
    671600   292.04188      0              2            
    671700   294.60408      0              2            
    671800   348.69355      0              2            
    671900   284.65632      0              2            
    672000   310.08737      0              2            
    672100   321.68535      0              2            
    672200   334.59203      0              2            
    672300   303.02531      0              2            
    672400   292.68959      0              2            
    672500   305.19489      0              2            
    672600   303.57974      0              2            
    672700   324.87114      0              2            
    672800   306.71447      0              2            
    672900   327.1359       0              2            
    673000   322.73131      0              2            
    673100   306.59443      0              2            
    673200   274.75453      0              2            
    673300   307.01748      0              2            
    673400   321.49196      0              2            
    673500   342.15357      0              2            
    673600   282.75213      0              2            
    673700   282.59414      0              2            
    673800   292.42188      0              2            
    673900   332.16655      0              2            
    674000   334.04231      0              2            
    674100   299.8392       0              2            
    674200   339.36073      0              2            
    674300   311.92848      0              2            
    674400   268.89669      0              2            
    674500   349.26924      0              2            
    674600   353.73373      0              2            
    674700   247.85916      0              2            
    674800   280.81623      0              2            
    674900   341.99956      0              2            
    675000   288.52107      0              2            
    675100   257.93281      0              2            
    675200   269.37673      0              2            
    675300   289.59899      0              2            
    675400   305.68196      0              2            
    675500   329.89699      0              2            
    675600   319.05048      0              2            
    675700   314.5595       0              2            
    675800   272.80339      0              2            
    675900   314.82729      0              2            
    676000   282.35706      0              2            
    676100   301.39717      0              2            
    676200   319.37489      0              2            
    676300   296.00539      0              2            
    676400   287.55652      0              2            
    676500   284.01938      0              2            
    676600   330.11777      0              2            
    676700   354.21281      0              2            
    676800   327.86223      0              2            
    676900   301.77971      0              2            
    677000   286.5822       0              2            
    677100   283.67764      0              2            
    677200   288.21738      0              2            
    677300   352.10861      0              2            
    677400   311.41974      0              2            
    677500   324.28112      0              2            
    677600   311.74057      0              2            
    677700   260.50066      0              2            
    677800   314.18962      0              2            
    677900   364.04416      0              2            
    678000   317.87264      0              2            
    678100   279.49073      0              2            
    678200   307.03381      0              2            
    678300   276.17198      0              2            
    678400   322.39443      0              2            
    678500   329.11617      0              2            
    678600   308.95866      0              2            
    678700   305.9443       0              2            
    678800   308.62259      0              2            
    678900   321.64169      0              2            
    679000   296.22535      0              2            
    679100   304.99817      0              2            
    679200   279.05958      0              2            
    679300   310.62374      0              2            
    679400   259.2848       0              2            
    679500   271.76689      0              2            
    679600   329.72043      0              2            
    679700   309.67186      0              2            
    679800   271.68614      0              2            
    679900   283.29323      0              2            
    680000   288.39544      0              2            
    680100   293.72074      0              2            
    680200   277.97914      0              2            
    680300   321.50216      0              2            
    680400   321.20688      0              2            
    680500   252.2707       0              2            
    680600   281.95285      0              2            
    680700   267.4358       0              2            
    680800   319.74321      0              2            
    680900   299.35357      0              2            
    681000   289.25495      0              2            
    681100   300.08846      0              2            
    681200   273.82098      0              2            
    681300   339.55132      0              2            
    681400   316.32322      0              2            
    681500   294.91683      0              2            
    681600   281.4608       0              2            
    681700   318.12636      0              2            
    681800   322.60942      0              2            
    681900   343.56031      0              2            
    682000   351.22867      0              2            
    682100   316.88036      0              2            
    682200   283.81006      0              2            
    682300   288.49061      0              2            
    682400   327.85562      0              2            
    682500   318.64142      0              2            
    682600   264.78442      0              2            
    682700   299.43964      0              2            
    682800   320.94498      0              2            
    682900   321.57196      0              2            
    683000   300.6025       0              2            
    683100   326.16042      0              2            
    683200   258.30866      0              2            
    683300   317.04144      0              2            
    683400   309.12977      0              2            
    683500   316.80407      0              2            
    683600   309.65422      0              2            
    683700   284.31997      0              2            
    683800   315.25963      0              2            
    683900   255.27354      0              2            
    684000   287.0533       0              2            
    684100   289.57257      0              2            
    684200   307.71758      0              2            
    684300   324.38386      0              2            
    684400   311.87424      0              2            
    684500   271.98876      0              2            
    684600   276.46732      0              2            
    684700   295.73076      0              2            
    684800   309.00025      0              2            
    684900   317.64658      0              2            
    685000   307.52724      0              2            
    685100   305.73107      0              2            
    685200   291.56932      0              2            
    685300   260.86283      0              2            
    685400   300.76219      0              2            
    685500   340.4297       0              2            
    685600   305.25972      0              2            
    685700   282.68449      0              2            
    685800   297.54853      0              2            
    685900   309.30191      0              2            
    686000   294.7458       0              2            
    686100   339.21991      0              2            
    686200   349.52447      0              2            
    686300   298.53879      0              2            
    686400   286.04429      0              2            
    686500   271.07263      0              2            
    686600   311.97959      0              2            
    686700   324.39558      0              2            
    686800   349.21772      0              2            
    686900   272.65045      0              2            
    687000   278.38354      0              2            
    687100   300.82765      0              2            
    687200   309.45952      0              2            
    687300   302.96851      0              2            
    687400   274.83491      0              2            
    687500   259.12701      0              2            
    687600   250.4304       0              2            
    687700   288.06077      0              2            
    687800   281.98491      0              2            
    687900   276.65172      0              2            
    688000   321.17184      0              2            
    688100   305.21567      0              2            
    688200   279.10364      0              2            
    688300   293.2461       0              2            
    688400   300.80735      0              2            
    688500   320.70924      0              2            
    688600   294.64494      0              2            
    688700   266.28844      0              2            
    688800   304.40574      0              2            
    688900   299.33411      0              2            
    689000   304.84817      0              2            
    689100   278.73653      0              2            
    689200   277.81804      0              2            
    689300   299.2787       0              2            
    689400   343.88267      0              2            
    689500   358.39915      0              2            
    689600   310.79518      0              2            
    689700   294.64         0              2            
    689800   312.31422      0              2            
    689900   306.94404      0              2            
    690000   305.30924      0              2            
    690100   296.5358       0              2            
    690200   335.09339      0              2            
    690300   272.23224      0              2            
    690400   268.00005      0              2            
    690500   282.95539      0              2            
    690600   339.22399      0              2            
    690700   338.05451      0              2            
    690800   350.28205      0              2            
    690900   271.35595      0              2            
    691000   291.32088      0              2            
    691100   281.93082      0              2            
    691200   327.53303      0              2            
    691300   329.64038      0              2            
    691400   325.37488      0              2            
    691500   298.48141      0              2            
    691600   276.51219      0              2            
    691700   300.31022      0              2            
    691800   309.95381      0              2            
    691900   362.26015      0              2            
    692000   321.27221      0              2            
    692100   295.43233      0              2            
    692200   300.4671       0              2            
    692300   310.89575      0              2            
    692400   301.60149      0              2            
    692500   298.05399      0              2            
    692600   314.45457      0              2            
    692700   297.29166      0              2            
    692800   282.01746      0              2            
    692900   301.76504      0              2            
    693000   322.57984      0              2            
    693100   325.0643       0              2            
    693200   273.61115      0              2            
    693300   271.62304      0              2            
    693400   285.65132      0              2            
    693500   298.90948      0              2            
    693600   290.23632      0              2            
    693700   312.70359      0              2            
    693800   310.53568      0              2            
    693900   338.14222      0              2            
    694000   319.33953      0              2            
    694100   305.28116      0              2            
    694200   282.11509      0              2            
    694300   311.71065      0              2            
    694400   325.71151      0              2            
    694500   288.48582      0              2            
    694600   251.78093      0              2            
    694700   274.5916       0              2            
    694800   321.96695      0              2            
    694900   304.7731       0              2            
    695000   304.72374      0              2            
    695100   311.58976      0              2            
    695200   302.47796      0              2            
    695300   315.96607      0              2            
    695400   333.30054      0              2            
    695500   312.85707      0              2            
    695600   310.87109      0              2            
    695700   288.02636      0              2            
    695800   292.52477      0              2            
    695900   315.35458      0              2            
    696000   320.55147      0              2            
    696100   327.14357      0              2            
    696200   316.79411      0              2            
    696300   310.89889      0              2            
    696400   262.7437       0              2            
    696500   292.69584      0              2            
    696600   303.10548      0              2            
    696700   323.87806