 read_data           ${fname}
 read_data           tes.data
Reading data file ...
  orthogonal box = (0 0 0) to (158.5 158.5 100)
  1 by 1 by 1 MPI processor grid
  reading atoms ...
  100 atoms
  scanning bonds ...
  1 = max bonds/atom
  scanning angles ...
  1 = max angles/atom
  scanning dihedrals ...
  1 = max dihedrals/atom
  reading bonds ...
  99 bonds
  reading angles ...
  98 angles
  reading dihedrals ...
  97 dihedrals
Finding 1-2 1-3 1-4 neighbors ...
  special bond factors lj:    0        0        0       
  special bond factors coul:  0        0        0       
     2 = max # of 1-2 neighbors
     2 = max # of 1-3 neighbors
     4 = max # of 1-4 neighbors
     6 = max # of special neighbors
  special bonds CPU = 0.000 seconds
  read_data CPU = 0.002 seconds

 # Dreiding potential information
 neighbor            0.4 bin
 neigh_modify        every 10 one 10000
 bond_style          harmonic
 bond_coeff          1 350 1.53
 angle_style         harmonic
 angle_coeff         1 60 109.5
 dihedral_style      multi/harmonic
 dihedral_coeff      1 1.73 -4.49 0.776 6.99 0.0
 pair_style          lj/cut 10.5
 pair_coeff          1 1 0.112 4.01 10.5

 # Equilibration (Langevin dynamics at 5000 K)
 velocity            all create 5000.0 1231
 fix                 1 all nve/limit 0.05
 fix                 2 all langevin 5000.0 5000.0 10.0 904297
 timestep            1

group sub id 41
1 atoms in group sub
group sub2 id 65
1 atoms in group sub2
fix new sub move linear 0.001 0 0
fix new2 sub2 move linear -0.001 0 0
fix breakk all bond/break 10 1 4.0

 thermo_style        custom step temp  f_breakk[*]
 thermo              100

dump 4a all custom 1000 dump.pos id type x y z

 run 1000000
Generated 0 of 0 mixed pair_coeff terms from geometric mixing rule
WARNING: One or more atoms are time integrated more than once (../modify.cpp:292)
Neighbor list info ...
  update: every = 10 steps, delay = 0 steps, check = yes
  max neighbors/atom: 10000, page size: 100000
  master list distance cutoff = 10.9
  ghost atom cutoff = 10.9
  binsize = 5.45, bins = 30 30 19
  1 neighbor lists, perpetual/occasional/extra = 1 0 0
  (1) pair lj/cut, perpetual
      attributes: half, newton on
      pair build: half/bin/newton
      stencil: half/bin/3d
      bin: standard
Per MPI rank memory allocation (min/avg/max) = 9.245 | 9.245 | 9.245 Mbytes
   Step          Temp       f_breakk[1]    f_breakk[2]  
         0   5000           0              0            
       100   4820.3774      0              0            
       200   4476.7091      0              0            
       300   4467.1593      0              0            
       400   4169.8928      0              0            
       500   4409.7878      0              0            
       600   4750.7565      0              0            
       700   4530.0152      0              0            
       800   4480.2979      0              0            
       900   4432.6391      0              0            
      1000   4589.3997      0              0            
      1100   4040.608       0              0            
      1200   4675.1555      0              0            
      1300   4517.9452      0              0            
      1400   4761.0035      0              0            
      1500   4797.6102      0              0            
      1600   4192.3865      0              0            
      1700   5282.4874      0              0            
      1800   5059.6682      0              0            
      1900   4489.9907      0              0            
      2000   4651.1734      0              0            
      2100   5001.8541      0              0            
      2200   4339.0325      0              0            
      2300   4970.1693      0              0            
      2400   4636.0892      0              0            
      2500   4823.4623      0              0            
      2600   4585.9748      0              0            
      2700   4112.6534      0              0            
      2800   4689.2768      0              0            
      2900   5354.4859      0              0            
      3000   4259.4689      0              0            
      3100   5273.6602      0              0            
      3200   4846.3295      0              0            
      3300   4281.3146      0              0            
      3400   4778.2754      0              0            
      3500   4672.6251      0              0            
      3600   4980.5048      0              0            
      3700   4646.7793      0              0            
      3800   4815.9391      0              0            
      3900   4310.338       0              0            
      4000   4528.1717      0              0            
      4100   5429.312       0              0            
      4200   4742.0774      0              0            
      4300   4920.5971      0              0            
      4400   4276.7512      0              0            
      4500   4172.0624      0              0            
      4600   4442.4594      0              0            
      4700   5372.0785      0              0            
      4800   4789.8533      0              0            
      4900   4897.2802      0              0            
      5000   5219.8663      0              0            
      5100   4876.8137      0              0            
      5200   4159.9188      0              0            
      5300   4339.3035      0              0            
      5400   4628.2649      0              0            
      5500   4366.543       0              0            
      5600   4361.161       0              0            
      5700   5300.1436      0              0            
      5800   5218.4832      0              0            
      5900   4945.811       0              0            
      6000   5197.3977      0              0            
      6100   4676.9045      0              0            
      6200   4816.3717      0              0            
      6300   4231.1645      0              0            
      6400   4453.2572      0              0            
      6500   4287.1103      0              0            
      6600   4241.4754      0              0            
      6700   4298.1953      0              0            
      6800   5088.7452      0              0            
      6900   4587.9087      0              0            
      7000   4777.5904      0              0            
      7100   4809.7826      0              0            
      7200   4711.9521      0              0            
      7300   4553.6417      0              0            
      7400   4200.2344      0              0            
      7500   5044.7692      0              0            
      7600   4536.4719      0              0            
      7700   4565.4473      0              0            
      7800   4455.3497      0              0            
      7900   5177.0299      0              0            
      8000   4384.3494      0              0            
      8100   4555.6729      0              0            
      8200   4820.854       0              0            
      8300   4560.6245      0              0            
      8400   4417.4684      0              0            
      8500   4767.1031      0              0            
      8600   4792.6253      0              0            
      8700   4354.4681      0              0            
      8800   4447.5242      0              0            
      8900   4680.9791      0              0            
      9000   4719.9364      0              0            
      9100   4384.3712      0              0            
      9200   4616.9643      0              0            
      9300   5251.5112      0              0            
      9400   4722.6905      0              0            
      9500   5053.0896      0              0            
      9600   4742.3241      0              0            
      9700   4599.2707      0              0            
      9800   4531.4315      0              0            
      9900   4709.1008      0              0            
     10000   4314.5963      0              0            
     10100   4778.823       0              0            
     10200   4236.8178      0              0            
     10300   4453.9831      0              0            
     10400   4107.1012      0              0            
     10500   5398.941       0              0            
     10600   4597.3378      0              0            
     10700   4849.515       0              0            
     10800   5091.4499      0              0            
     10900   4812.8411      0              0            
     11000   4484.1864      0              0            
     11100   4588.4841      0              0            
     11200   4896.0808      0              0            
     11300   5297.7051      0              0            
     11400   4785.1157      0              0            
     11500   4818.6153      0              0            
     11600   4495.1361      0              0            
     11700   4036.1887      0              0            
     11800   4671.6983      0              0            
     11900   4781.2565      0              0            
     12000   4830.4162      0              0            
     12100   4491.8391      0              0            
     12200   4253.1557      0              0            
     12300   4314.5507      0              0            
     12400   4426.7053      0              0            
     12500   4666.8516      0              0            
     12600   4219.4161      0              0            
     12700   4956.1453      0              0            
     12800   5120.692       0              0            
     12900   4547.426       0              0            
     13000   4867.7265      0              0            
     13100   4084.3432      0              0            
     13200   4498.7521      0              0            
     13300   4147.445       0              0            
     13400   5123.1572      0              0            
     13500   5187.2965      0              0            
     13600   4540.146       0              0            
     13700   4495.5638      0              0            
     13800   4159.4381      0              0            
     13900   4592.714       0              0            
     14000   5413.5056      0              0            
     14100   4236.6311      0              0            
     14200   5080.3313      0              0            
     14300   5219.3849      0              0            
     14400   3876.9641      0              0            
     14500   4680.2675      0              0            
     14600   4526.5268      0              0            
     14700   4951.3687      0              0            
     14800   4017.0588      0              0            
     14900   4885.1317      0              0            
     15000   4612.685       0              0            
     15100   4901.7011      0              0            
     15200   4802.076       0              0            
     15300   4424.3722      0              0            
     15400   4733.7728      0              0            
     15500   4023.6844      0              0            
     15600   3967.5606      0              0            
     15700   5120.6619      0              0            
     15800   4371.3462      0              0            
     15900   5113.9576      0              0            
     16000   5029.6472      0              0            
     16100   4695.8272      0              0            
     16200   4562.7636      0              0            
     16300   4285.0588      0              0            
     16400   4918.4984      0              0            
     16500   4617.6157      0              0            
     16600   4999.3114      0              0            
     16700   4541.27        0              0            
     16800   4826.3226      0              0            
     16900   5305.413       0              0            
     17000   4853.7373      0              0            
     17100   4479.8005      0              0            
     17200   4330.2955      0              0            
     17300   3941.0855      0              0            
     17400   4138.7467      0              0            
     17500   5081.9315      0              0            
     17600   4951.2375      0              0            
     17700   4517.2719      0              0            
     17800   4562.3344      0              0            
     17900   4698.3219      0              0            
     18000   5144.2728      0              0            
     18100   4490.8023      0              0            
     18200   4000.6774      0              0            
     18300   4955.0057      0              0            
     18400   4561.7326      0              0            
     18500   4658.0004      0              0            
     18600   4853.4954      0              0            
     18700   4432.0719      0              0            
     18800   4775.4884      0              0            
     18900   4629.1183      0              0            
     19000   4453.5075      0              0            
     19100   5006.535       0              0            
     19200   4189.2339      0              0            
     19300   4491.8232      0              0            
     19400   4721.71        0              0            
     19500   5255.8912      0              0            
     19600   5132.0453      0              0            
     19700   4618.9731      0              0            
     19800   4416.9137      0              0            
     19900   4585.1562      0              0            
     20000   4542.9405      0              0            
     20100   3894.2935      0              0            
     20200   4576.3769      0              0            
     20300   5008.4199      0              0            
     20400   5131.1673      0              0            
     20500   4716.1086      0              0            
     20600   4562.7512      0              0            
     20700   4853.8825      0              0            
     20800   4990.9248      0              0            
     20900   4854.1181      0              0            
     21000   4537.0249      0              0            
     21100   4566.3864      0              0            
     21200   4176.5221      0              0            
     21300   5255.7245      0              0            
     21400   5083.3328      0              0            
     21500   5276.5217      0              0            
     21600   4070.7422      0              0            
     21700   4905.7799      0              0            
     21800   4440.8568      0              0            
     21900   4498.2743      0              0            
     22000   4703.2484      0              0            
     22100   4433.7723      0              0            
     22200   4860.5979      0              0            
     22300   4502.3716      0              0            
     22400   4872.1524      0              0            
     22500   4477.2295      0              0            
     22600   4963.8663      0              0            
     22700   4274.1143      0              0            
     22800   4305.39        0              0            
     22900   4475.8892      0              0            
     23000   4179.9797      0              0            
     23100   4265.5395      0              0            
     23200   4730.7283      0              0            
     23300   4963.956       0              0            
     23400   3962.5537      0              0            
     23500   4804.2264      0              0            
     23600   4684.301       0              0            
     23700   4386.6828      0              0            
     23800   5035.7258      0              0            
     23900   5284.4001      0              0            
     24000   4665.0818      0              0            
     24100   3802.9493      0              0            
     24200   4580.5364      0              0            
     24300   5437.1213      0              0            
     24400   4849.646       0              0            
     24500   4988.1658      0              0            
     24600   5083.4533      0              0            
     24700   4644.249       0              0            
     24800   4418.3594      0              0            
     24900   4158.5547      0              0            
     25000   4783.7248      0              0            
     25100   4916.4766      0              0            
     25200   4201.2087      0              0            
     25300   4607.2167      0              0            
     25400   4593.002       0              0            
     25500   4488.541       0              0            
     25600   4856.9331      0              0            
     25700   4292.3746      0              0            
     25800   4370.7467      0              0            
     25900   4449.5969      0              0            
     26000   4801.6564      0              0            
     26100   4547.8475      0              0            
     26200   4373.0898      0              0            
     26300   4478.0746      0              0            
     26400   4010.0904      0              0            
     26500   4956.1864      0              0            
     26600   4557.9627      0              0            
     26700   4475.9775      0              0            
     26800   4355.4283      0              0            
     26900   4938.2958      0              0            
     27000   5621.066       0              0            
     27100   4721.5209      0              0            
     27200   4704.9992      0              0            
     27300   4364.9622      0              0            
     27400   4907.0883      0              0            
     27500   3965.4969      0              0            
     27600   4686.7251      0              0            
     27700   4735.7272      0              0            
     27800   5331.6125      0              0            
     27900   4246.3888      0              0            
     28000   4676.3856      0              0            
     28100   4750.7004      0              0            
     28200   4867.3706      0              0            
     28300   4990.8365      0              0            
     28400   4682.5442      0              0            
     28500   4080.8486      0              0            
     28600   5071.6898      0              0            
     28700   4913.8577      0              0            
     28800   4457.8274      0              0            
     28900   4095.6638      0              0            
     29000   4411.8614      0              0            
     29100   4679.8877      0              0            
     29200   4385.1929      0              0            
     29300   4699.255       0              0            
     29400   4368.4198      0              0            
     29500   4585.2168      0              0            
     29600   4584.3911      0              0            
     29700   4564.5278      0              0            
     29800   4677.3843      0              0            
     29900   4819.7542      0              0            
     30000   4756.1043      0              0            
     30100   4926.4115      0              0            
     30200   3877.6566      0              0            
     30300   4153.6779      0              0            
     30400   5227.0287      0              0            
     30500   4836.7948      0              0            
     30600   4571.6725      0              0            
     30700   4692.1302      0              0            
     30800   4765.9029      0              0            
     30900   5093.8153      0              0            
     31000   5191.8695      0              0            
     31100   4446.8955      0              0            
     31200   4050.6122      0              0            
     31300   4910.4127      0              0            
     31400   4461.1608      0              0            
     31500   5104.8509      0              0            
     31600   4458.754       0              0            
     31700   4580.7475      0              0            
     31800   4047.4145      0              0            
     31900   4912.0707      0              0            
     32000   4326.1899      0              0            
     32100   4748.4907      0              0            
     32200   4570.4735      0              0            
     32300   4162.7674      0              0            
     32400   4773.0456      0              0            
     32500   4323.1829      0              0            
     32600   4237.1631      0              0            
     32700   4972.9591      0              0            
     32800   4338.3093      0              0            
     32900   5192.9919      0              0            
     33000   4719.7827      0              0            
     33100   5530.7615      0              0            
     33200   4121.4615      0              0            
     33300   4540.0978      0              0            
     33400   4628.4385      0              0            
     33500   4396.9246      0              0            
     33600   5024.2564      0              0            
     33700   4419.6859      0              0            
     33800   4856.8014      0              0            
     33900   5015.8882      0              0            
     34000   4693.4617      0              0            
     34100   4889.3419      0              0            
     34200   4720.299       0              0            
     34300   5389.6194      0              0            
     34400   4756.8557      0              0            
     34500   4094.2886      0              0            
     34600   4900.6332      0              0            
     34700   4993.4784      0              0            
     34800   3886.74        0              0            
     34900   4853.1005      0              0            
     35000   4205.5737      0              0            
     35100   4641.985       0              0            
     35200   4477.2392      0              0            
     35300   4734.6086      0              0            
     35400   4330.5876      0              0            
     35500   4763.8244      0              0            
     35600   4642.8254      0              0            
     35700   4044.6009      0              0            
     35800   4743.006       0              0            
     35900   4302.0164      0              0            
     36000   4237.7152      0              0            
     36100   4256.0248      0              0            
     36200   4570.5941      0              0            
     36300   4527.1977      0              0            
     36400   4061.4402      0              0            
     36500   4522.7882      0              0            
     36600   4873.1366      0              0            
     36700   4447.4628      0              0            
     36800   4249.2332      0              0            
     36900   4600.2965      0              0            
     37000   4576.3124      0              0            
     37100   4895.8512      0              0            
     37200   4877.6026      0              0            
     37300   4875.6918      0              0            
     37400   4496.5096      0              0            
     37500   4512.8837      0              0            
     37600   4701.0309      0              0            
     37700   4639.5732      0              0            
     37800   5005.6289      0              0            
     37900   4934.5496      0              0            
     38000   4636.3349      0              0            
     38100   4968.8925      0              0            
     38200   4662.2204      0              0            
     38300   4383.1783      0              0            
     38400   4757.8545      0              0            
     38500   4375.682       0              0            
     38600   4643.5219      0              0            
     38700   4919.5635      0              0            
     38800   4712.5878      0              0            
     38900   4769.8605      0              0            
     39000   4643.3156      0              0            
     39100   4397.2338      0              0            
     39200   3760.9724      0              0            
     39300   4721.57        0              0            
     39400   4658.2996      0              0            
     39500   4837.462       0              0            
     39600   4825.2141      0              0            
     39700   4473.3051      0              0            
     39800   5030.9387      0              0            
     39900   4275.6908      0              0            
     40000   4815.9944      0              0            
     40100   4925.3187      0              0            
     40200   4231.3216      0              0            
     40300   4343.6189      0              0            
     40400   4893.1795      0              0            
     40500   4315.0147      0              0            
     40600   4690.1916      0              0            
     40700   4542.2774      0              0            
     40800   5266.7312      0              0            
     40900   4761.1699      0              0            
     41000   5369.15        0              0            
     41100   4316.8823      0              0            
     41200   4469.2254      0              0            
     41300   4822.7077      0              0            
     41400   4810.1442      0              0            
     41500   4690.8967      0              0            
     41600   4511.7501      0              0            
     41700   4145.6704      0              0            
     41800   4862.883       0              0            
     41900   4235.768       0              0            
     42000   4794.1726      0              0            
     42100   4246.6098      0              0            
     42200   4666.6195      0              0            
     42300   4348.6442      0              0            
     42400   4505.5382      0              0            
     42500   4832.1393      0              0            
     42600   4676.4278      0              0            
     42700   4639.7605      0              0            
     42800   4834.4098      0              0            
     42900   4488.3351      0              0            
     43000   4214.0766      0              0            
     43100   4247.115       0              0            
     43200   4917.7814      0              0            
     43300   3981.5745      0              0            
     43400   4438.0247      0              0            
     43500   4569.0169      0              0            
     43600   4432.765       0              0            
     43700   4274.2115      0              0            
     43800   5196.0633      0              0            
     43900   4470.3814      0              0            
     44000   5179.8584      0              0            
     44100   4335.392       0              0            
     44200   4565.6898      0              0            
     44300   4991.5693      0              0            
     44400   4936.3818      0              0            
     44500   4875.9539      0              0            
     44600   4996.6028      0              0            
     44700   4954.7292      0              0            
     44800   4671.2145      0              0            
     44900   4390.7263      0              0            
     45000   4908.67        0              0            
     45100   4862.0528      0              0            
     45200   4757.7559      0              0            
     45300   4658.7544      0              0            
     45400   4881.1925      0              0            
     45500   4388.7162      0              0            
     45600   4626.9621      0              0            
     45700   4936.1345      0              0            
     45800   4246.0287      0              0            
     45900   4168.4062      0              0            
     46000   4487.1628      0              0            
     46100   4002.9151      0              0            
     46200   4463.847       0              0            
     46300   4775.0814      0              0            
     46400   4392.3285      0              0            
     46500   4656.7724      0              0            
     46600   4650.5301      0              0            
     46700   4917.3848      0              0            
     46800   4637.0021      0              0            
     46900   4733.0637      0              0            
     47000   4860.5704      0              0            
     47100   4321.6477      0              0            
     47200   4704.3905      0              0            
     47300   4985.5443      0              0            
     47400   4842.4533      0              0            
     47500   4378.6276      0              0            
     47600   4278.5813      0              0            
     47700   4620.0327      0              0            
     47800   4394.8885      0              0            
     47900   4647.3193      0              0            
     48000   4146.6263      0              0            
     48100   4940.2989      0              0            
     48200   4161.7726      0              0            
     48300   4947.9181      0              0            
     48400   4748.0895      0              0            
     48500   4699.7125      0              0            
     48600   4797.3708      0              0            
     48700   4003.1598      0              0            
     48800   4525.3677      0              0            
     48900   4490.1256      0              0            
     49000   4219.0437      0              0            
     49100   4249.2599      0              0            
     49200   4793.921       0              0            
     49300   4625.5548      0              0            
     49400   5201.1205      0              0            
     49500   4898.7395      0              0            
     49600   4395.5471      0              0            
     49700   4889.1757      0              0            
     49800   4728.3008      0              0            
     49900   4748.802       0              0            
     50000   4557.463       0              0            
     50100   4443.8419      0              0            
     50200   3994.6633      0              0            
     50300   4513.1256      0              0            
     50400   4344.2963      0              0            
     50500   4869.4097      0              0            
     50600   4349.2965      0              0            
     50700   4929.092       0              0            
     50800   5113.1021      0              0            
     50900   5127.4224      0              0            
     51000   4490.7052      0              0            
     51100   5358.5886      0              0            
     51200   4795.6539      0              0            
     51300   4249.9869      0              0            
     51400   4680.4159      0              0            
     51500   4702.2453      0              0            
     51600   4487.5804      0              0            
     51700   4864.5741      0              0            
     51800   4722.2009      0              0            
     51900   4365.0727      0              0            
     52000   4381.0008      0              0            
     52100   5168.2494      0              0            
     52200   5204.5043      0              0            
     52300   4292.8936      0              0            
     52400   4250.6122      0              0            
     52500   4107.3129      0              0            
     52600   4102.68        0              0            
     52700   5036.7189      0              0            
     52800   4839.9175      0              0            
     52900   5421.3905      0              0            
     53000   4632.2725      0              0            
     53100   4708.9845      0              0            
     53200   4951.0449      0              0            
     53300   4633.5319      0              0            
     53400   4625.6021      0              0            
     53500   4499.1096      0              0            
     53600   4395.6588      0              0            
     53700   4695.8682      0              0            
     53800   4290.9564      0              0            
     53900   5055.6292      0              0            
     54000   4716.5706      0              0            
     54100   4687.762       0              0            
     54200   4093.9421      0              0            
     54300   4542.6131      0              0            
     54400   4757.8432      0              0            
     54500   4678.4518      0              0            
     54600   5574.5268      0              0            
     54700   4334.978       0              0            
     54800   4864.2986      0              0            
     54900   4715.2567      0              0            
     55000   4010.1685      0              0            
     55100   4312.6868      0              0            
     55200   4559.8858      0              0            
     55300   4356.3742      0              0            
     55400   4803.029       0              0            
     55500   4473.068       0              0            
     55600   4375.0903      0              0            
     55700   4760.6416      0              0            
     55800   4469.2517      0              0            
     55900   4506.148       0              0            
     56000   4635.0477      0              0            
     56100   4688.7477      0              0            
     56200   4369.8054      0              0            
     56300   4692.5081      0              0            
     56400   3650.2899      0              0            
     56500   3895.1037      0              0            
     56600   4767.2301      0              0            
     56700   4548.7173      0              0            
     56800   4835.6103      0              0            
     56900   5149.9344      0              1            
     57000   5434.4565      0              1            
     57100   4406.0058      0              1            
     57200   4975.7701      0              1            
     57300   5265.5114      0              1            
     57400   4549.1531      0              1            
     57500   4932.5502      0              1            
     57600   4971.1588      0              1            
     57700   4654.5481      0              1            
     57800   5259.8338      0              1            
     57900   4719.6757      0              1            
     58000   4129.9035      0              1            
     58100   4910.7741      0              1            
     58200   4605.7052      0              1            
     58300   4381.7337      0              1            
     58400   4827.0659      0              1            
     58500   4599.7936      0              1            
     58600   4535.382       0              1            
     58700   4636.3536      0              1            
     58800   4049.836       0              1            
     58900   4997.2918      0              1            
     59000   5362.6564      0              1            
     59100   4740.8386      0              1            
     59200   5185.5388      0              1            
     59300   4244.3198      0              1            
     59400   4212.5518      0              1            
     59500   4191.0253      0              1            
     59600   3908.4315      0              1            
     59700   4322.3133      0              1            
     59800   4909.0344      0              1            
     59900   4895.9608      0              1            
     60000   4487           0              1            
     60100   4690.2688      0              1            
     60200   4532.2633      0              1            
     60300   4695.7687      0              1            
     60400   5257.857       0              1            
     60500   4515.3012      0              1            
     60600   4645.0091      0              1            
     60700   5046.8887      0              1            
     60800   5108.8004      0              1            
     60900   5041.0136      0              1            
     61000   4791.3622      0              1            
     61100   4912.0446      0              1            
     61200   4698.1005      0              1            
     61300   4609.9493      0              1            
     61400   4456.4602      0              1            
     61500   5054.602       0              1            
     61600   4635.9342      0              1            
     61700   4960.4624      0              1            
     61800   4754.3619      0              1            
     61900   4656.3334      0              1            
     62000   4231.2154      0              1            
     62100   4430.4028      0              1            
     62200   3952.0771      0              1            
     62300   4484.7191      0              1            
     62400   4378.053       0              1            
     62500   4134.3453      0              1            
     62600   4185.7708      0              1            
     62700   4154.8876      0              1            
     62800   4738.7912      0              1            
     62900   4268.3374      0              1            
     63000   4596.9891      0              1            
     63100   4518.8375      0              1            
     63200   4415.336       0              1            
     63300   4481.2539      0              1            
     63400   4402.493       0              1            
     63500   4344.3922      0              1            
     63600   4613.2348      0              1            
     63700   4101.6726      0              1            
     63800   4174.8649      0              1            
     63900   4636.6439      0              1            
     64000   3970.951       0              1            
     64100   4146.2623      0              1            
     64200   4532.5939      0              1            
     64300   4080.0972      0              1            
     64400   4404.5591      0              1            
     64500   4908.0397      0              1            
     64600   4443.1365      0              1            
     64700   4544.2119      0              1            
     64800   4554.1284      0              1            
     64900   5264.3169      0              1            
     65000   4549.2491      0              1            
     65100   4669.3234      0              1            
     65200   4530.7879      0              1            
     65300   5111.5499      0              1            
     65400   4903.0982      0              1            
     65500   4828.6739      0              1            
     65600   4756.6406      0              1            
     65700   4856.9014      0              1            
     65800   4760.751       0              1            
     65900   4610.1781      0              1            
     66000   4291.0455      0              1            
     66100   3861.3829      0              1            
     66200   4587.5162      0              1            
     66300   4579.8615      0              1            
     66400   4906.7318      0              1            
     66500   4735.3839      0              1            
     66600   4610.7574      0              1            
     66700   3855.6826      0              1            
     66800   4605.9225      0              1            
     66900   4463.9765      0              1            
     67000   4813.3805      0              1            
     67100   4658.6715      0              1            
     67200   4586.337       0              1            
     67300   4467.9649      0              1            
     67400   5319.6125      0              1            
     67500   4397.4312      0              1            
     67600   3926.3781      0              1            
     67700   4223.8838      0              1            
     67800   4234.3179      0              1            
     67900   4710.4955      0              1            
     68000   4238.3799      0              1            
     68100   4030.0879      0              1            
     68200   4526.9454      0              1            
     68300   4779.9002      0              1            
     68400   4553.4548      0              1            
     68500   5198.9195      0              1            
     68600   4736.6864      0              1            
     68700   4872.278       0              1            
     68800   4763.3026      0              1            
     68900   4431.2154      0              1            
     69000   4385.5084      0              1            
     69100   5536.5645      0              1            
     69200   4578.7831      0              1            
     69300   4794.5926      0              1            
     69400   4267.8721      0              1            
     69500   4775.3384      0              1            
     69600   4999.9571      0              1            
     69700   5011.7693      0              1            
     69800   4496.1875      0              1            
     69900   5522.3854      0              1            
     70000   4954.3463      0              1            
     70100   4428.4795      0              1            
     70200   5133.1688      0              1            
     70300   4665.9532      0              1            
     70400   4464.9683      0              1            
     70500   4979.7244      0              1            
     70600   4966.5231      0              1            
     70700   4698.6236      0              1            
     70800   4061.0964      0              1            
     70900   4859.0476      0              1            
     71000   4417.8378      0              1            
     71100   4365.7334      0              1            
     71200   4277.2887      0              1            
     71300   4600.9152      0              1            
     71400   4726.7516      0              1            
     71500   4090.6791      0              1            
     71600   4796.3852      0              1            
     71700   4219.5681      0              1            
     71800   4643.836       0              1            
     71900   4906.0457      0              1            
     72000   5141.6183      0              1            
     72100   4311.448       0              1            
     72200   4380.8408      0              1            
     72300   5210.2865      0              1            
     72400   4802.3379      0              1            
     72500   5115.9443      0              1            
     72600   4528.7744      0              1            
     72700   4159.0991      0              1            
     72800   4930.6727      0              1            
     72900   5341.051       0              1            
     73000   4518.3147      0              1            
     73100   4559.4367      0              1            
     73200   5017.3331      0              1            
     73300   4812.4458      0              1            
     73400   4708.5419      0              1            
     73500   4647.7342      0              1            
     73600   4778.3299      0              1            
     73700   4779.2574      0              1            
     73800   4823.7956      0              1            
     73900   4980.5036      0              1            
     74000   4307.2341      0              1            
     74100   5393.1351      0              1            
     74200   4856.1196      0              1            
     74300   4665.5875      0              1            
     74400   5012.903       0              1            
     74500   4952.1962      0              1            
     74600   4173.4505      0              1            
     74700   4708.3123      0              1            
     74800   4552.8379      0              1            
     74900   4728.3576      0              1            
     75000   4796.2549      0              1            
     75100   4249.0837      0              1            
     75200   4525.9119      0              1            
     75300   4036.6763      0              1            
     75400   4714.3811      0              1            
     75500   5214.8021      0              1            
     75600   4861.1387      0              1            
     75700   4154.1338      0              1            
     75800   4984.8425      0              1            
     75900   4240.4375      0              1            
     76000   4476.2509      0              1            
     76100   4350.2281      0              1            
     76200   4275.8317      0              1            
     76300   3743.6139      0              1            
     76400   5239.0832      0              1            
     76500   3993.9844      0              1            
     76600   4376.6817      0              1            
     76700   4424.9507      0              1            
     76800   4921.2123      0              1            
     76900   4335.4331      0              1            
     77000   4721.5591      0              1            
     77100   4765.6566      0              1            
     77200   4104.5909      0              1            
     77300   4748.0341      0              1            
     77400   4619.0208      0              1            
     77500   4499.6614      0              1            
     77600   4463.6931      0              1            
     77700   4212.3207      0              1            
     77800   4438.5388      0              1            
     77900   4452.8291      0              1            
     78000   4124.8824      0              1            
     78100   4565.824       0              1            
     78200   4208.0204      0              1            
     78300   4884.0232      0              1            
     78400   4382.6805      0              1            
     78500   4565.9481      0              1            
     78600   4065.9394      0              1            
     78700   4489.0407      0              1            
     78800   4752.1584      0              1            
     78900   4931.0066      0              1            
     79000   5448.4089      0              1            
     79100   4802.8872      0              1            
     79200   4540.8577      0              1            
     79300   4421.1464      0              1            
     79400   4347.3586      0              1            
     79500   4428.356       0              1            
     79600   4978.3596      0              1            
     79700   4318.1452      0              1            
     79800   4291.1197      0              1            
     79900   4798.543       0              1            
     80000   4737.035       0              1            
     80100   4181.9906      0              1            
     80200   4315.4326      0              1            
     80300   5011.4435      0              1            
     80400   4783.5111      0              1            
     80500   4491.7962      0              1            
     80600   4141.7678      0              1            
     80700   3810.6969      0              1            
     80800   4573.8645      0              1            
     80900   4172.8839      0              1            
     81000   4671.5217      0              1            
     81100   4198.5678      0              1            
     81200   4492.7089      0              1            
     81300   4376.4903      0              1            
     81400   4390.1097      0              1            
     81500   4381.8382      0              1            
     81600   4549.5561      0              1            
     81700   4949.8757      0              1            
     81800   4673.2867      0              1            
     81900   4400.0317      0              1            
     82000   4151.2429      0              1            
     82100   4771.0985      0              1            
     82200   4559.6507      0              1            
     82300   4877.9078      0              1            
     82400   5070.4292      0              1            
     82500   4699.9684      0              1            
     82600   4693.063       0              1            
     82700   4598.2776      0              1            
     82800   4033.9843      0              1            
     82900   5099.7773      0              1            
     83000   4744.9642      0              1            
     83100   4811.2328      0              1            
     83200   4530.4243      0              1            
     83300   4399.6514      0              1            
     83400   5006.3856      0              1            
     83500   4995.6441      0              1            
     83600   4137.2468      0              1            
     83700   5145.8378      0              1            
     83800   4436.9915      0              1            
     83900   5007.9512      0              1            
     84000   4621.6895      0              1            
     84100   4101.2165      0              1            
     84200   4671.5602      0              1            
     84300   5189.8158      0              1            
     84400   4432.2817      0              1            
     84500   4627.8352      0              1            
     84600   4510.6552      0              1            
     84700   4288.2201      0              1            
     84800   5032.836       0              1            
     84900   4169.9933      0              1            
     85000   4463.399       0              1            
     85100   4563.2773      0              1            
     85200   4919.5772      0              1            
     85300   4595.9267      0              1            
     85400   4373.5666      0              1            
     85500   4764.9349      0              1            
     85600   4434.7066      0              1            
     85700   4665.3642      0              1            
     85800   4675.8522      0              1            
     85900   4945.6936      0              1            
     86000   4201.03        0              1            
     86100   4310.8656      0              1            
     86200   4438.0952      0              1            
     86300   4010.1361      0              1            
     86400   4507.3833      0              1            
     86500   4606.6918      0              1            
     86600   5141.3694      0              1            
     86700   4632.8979      0              1            
     86800   4661.1438      0              1            
     86900   4619.8649      0              1            
     87000   4235.5115      0              1            
     87100   4477.7392      0              1            
     87200   4361.4271      0              1            
     87300   4666.4248      0              1            
     87400   4196.8558      0              1            
     87500   4286.3344      0              1            
     87600   4994.8942      0              1            
     87700   4750.3606      0              1            
     87800   5058.791       0              1            
     87900   4052.6219      0              1            
     88000   4688.7013      0              1            
     88100   5149.0925      0              1            
     88200   4985.916       0              1            
     88300   4600.4566      0              1            
     88400   4171.5817      0              1            
     88500   4454.9637      0              1            
     88600   4599.9705      0              1            
     88700   4779.8083      0              1            
     88800   3841.6532      0              1            
     88900   4313.9936      0              1            
     89000   4214.6639      0              1            
     89100   4731.816       0              1            
     89200   4276.0922      0              1            
     89300   4484.4181      0              1            
     89400   5027.4228      0              1            
     89500   4768.6001      0              1            
     89600   5649.723       0              1            
     89700   4914.5768      0              1            
     89800   4656.701       0              1            
     89900   4879.065       0              1            
     90000   4815.234       0              1            
     90100   4586.1802      0              1            
     90200   4322.8347      0              1            
     90300   4550.0236      0              1            
     90400   4489.0345      0              1            
     90500   4605.5233      0              1            
     90600   4688.2353      0              1            
     90700   4276.6976      0              1            
     90800   5422.0109      0              1            
     90900   3827.8765      0              1            
     91000   4866.4573      0              1            
     91100   4447.5049      0              1            
     91200   4392.9938      0              1            
     91300   4562.0998      0              1            
     91400   4394.3009      0              1            
     91500   5090.4733      0              1            
     91600   4923.6235      0              1            
     91700   4951.0028      0              1            
     91800   4444.5589      0              1            
     91900   4740.1324      0              1            
     92000   4403.8226      0              1            
     92100   4992.0654      0              1            
     92200   4516.1861      0              1            
     92300   4629.2346      0              1            
     92400   4247.2707      0              1            
     92500   4432.8843      0              1            
     92600   4763.7949      0              1            
     92700   4800.6728      0              1            
     92800   4527.3316      0              1            
     92900   4485.6209      0              1            
     93000   4625.1843      0              1            
     93100   4616.8401      0              1            
     93200   4780.3376      0              1            
     93300   5107.9577      0              1            
     93400   4532.4989      0              1            
     93500   4104.291       0              1            
     93600   4907.0028      0              1            
     93700   4861.3529      0              1            
     93800   4831.5201      0              1            
     93900   4703.9094      0              1            
     94000   4257.9579      0              1            
     94100   4698.3288      0              1            
     94200   4919.5872      0              1            
     94300   4165.0624      0              1            
     94400   5236.6514      0              1            
     94500   4840.7327      0              1            
     94600   4773.6401      0              1            
     94700   4933.7953      0              1            
     94800   5055.1632      0              1            
     94900   4194.1237      0              1            
     95000   4809.7255      0              1            
     95100   4231.3094      0              1            
     95200   4690.4279      0              1            
     95300   4281.3443      0              1            
     95400   4404.0892      0              1            
     95500   4711.4159      0              1            
     95600   4243.1991      0              1            
     95700   4994.3638      0              1            
     95800   4283.3027      0              1            
     95900   4580.3453      0              1            
     96000   4362.898       0              1            
     96100   4644.7854      0              1            
     96200   3795.4726      0              1            
     96300   4464.6875      0              1            
     96400   4067.7607      0              1            
     96500   4705.1572      0              1            
     96600   4900.6361      0              1            
     96700   4259.2661      0              1            
     96800   4792.8899      0              1            
     96900   4425.7829      0              1            
     97000   4456.7316      0              1            
     97100   4466.8037      0              1            
     97200   4368.5176      0              1            
     97300   4445.5627      0              1            
     97400   4756.2662      0              1            
     97500   4356.4717      0              1            
     97600   5023.7945      0              1            
     97700   4728.2174      0              1            
     97800   5050.0055      0              1            
     97900   4728.0083      0              1            
     98000   4504.6976      0              1            
     98100   4389.4717      0              1            
     98200   4501.3519      0              1            
     98300   4263.2139      0              1            
     98400   4749.5238      0              1            
     98500   4765.3507      0              1            
     98600   5132.7505      0              1            
     98700   4371.7011      0              1            
     98800   4096.2435      0              1            
     98900   4906.1503      0              1            
     99000   4237.5753      0              1            
     99100   4231.4602      0              1            
     99200   4548.414       0              1            
     99300   4846.0947      0              1            
     99400   5152.2605      0              1            
     99500   5204.3714      0              1            
     99600   4293.0318      0              1            
     99700   4587.0467      0              1            
     99800   4270.0157      0              1            
     99900   4875.8164      0              1            
    100000   5168.7264      0              1            
    100100   4481.2786      0              1            
    100200   4570.7689      0              1            
    100300   3966.479       0              1            
    100400   4850.6529      0              1            
    100500   4397.966       0              1            
    100600   5181.7121      0              1            
    100700   4890.9182      0              1            
    100800   4268.3489      0              1            
    100900   4649.0233      0              1            
    101000   4949.8574      0              1            
    101100   4530.4541      0              1            
    101200   4335.271       0              1            
    101300   5189.0607      0              1            
    101400   4621.0187      0              1            
    101500   4577.6375      0              1            
    101600   5125.4898      0              1            
    101700   4696.8283      0              1            
    101800   4539.1791      0              1            
    101900   4600.14        0              1            
    102000   4390.0891      0              1            
    102100   5237.4957      0              1            
    102200   4628.1565      0              1            
    102300   4954.3004      0              1            
    102400   4991.123       0              1            
    102500   4955.1002      0              1            
    102600   4519.2213      0              1            
    102700   4948.9856      0              1            
    102800   4853.1232      0              1            
    102900   4206.3142      0              1            
    103000   5069.2614      0              1            
    103100   4503.9732      0              1            
    103200   5113.9767      0              1            
    103300   4329.9582      0              1            
    103400   4552.9455      0              1            
    103500   4380.3497      0              1            
    103600   4372.9047      0              1            
    103700   4322.5301      0              1            
    103800   4944.827       0              1            
    103900   4338.1652      0              1            
    104000   4675.3216      0              1            
    104100   4465.289       0              1            
    104200   4864.7726      0              1            
    104300   4493.6467      0              1            
    104400   5393.2979      0              1            
    104500   4268.5937      0              1            
    104600   4655.8329      0              1            
    104700   4606.5755      0              1            
    104800   4997.4055      0              1            
    104900   5394.224       0              1            
    105000   4558.386       0              1            
    105100   4864.8285      0              1            
    105200   4984.5547      0              1            
    105300   4547.0823      0              1            
    105400   4544.1543      0              1            
    105500   4648.0629      0              1            
    105600   4780.7628      0              1            
    105700   4877.321       0              1            
    105800   4868.5664      0              1            
    105900   4709.6708      0              1            
    106000   5010.5565      0              1            
    106100   4070.3355      0              1            
    106200   5033.5962      0              1            
    106300   4912.2487      0              1            
    106400   4478.3591      0              1            
    106500   4044.6618      0              1            
    106600   4478.6981      0              1            
    106700   4749.0537      0              1            
    106800   5623.1059      0              1            
    106900   4323.0086      0              1            
    107000   5503.4307      0              1            
    107100   4106.943       0              1            
    107200   4736.2474      0              1            
    107300   4192.7973      0              1            
    107400   5147.0988      0              1            
    107500   4793.3338      0              1            
    107600   4438.7947      0              1            
    107700   5184.1155      0              1            
    107800   4533.6056      0              1            
    107900   5247.5994      0              1            
    108000   4854.5729      0              1            
    108100   4867.4385      0              1            
    108200   4593.5128      0              1            
    108300   4661.6849      0              1            
    108400   5258.3396      0              1            
    108500   4912.1191      0              1            
    108600   4321.4347      0              1            
    108700   4288.4618      0              1            
    108800   5109.0041      0              1            
    108900   4650.8102      0              1            
    109000   4381.8078      0              1            
    109100   3970.9783      0              1            
    109200   5013.0093      0              1            
    109300   4198.3262      0              1            
    109400   4556.8349      0              1            
    109500   4334.1258      0              1            
    109600   4299.0498      0              1            
    109700   4657.4931      0              1            
    109800   4617.016       0              1            
    109900   4715.7652      0              1            
    110000   4777.7855      0              1            
    110100   5155.4029      0              1            
    110200   4349.5011      0              1            
    110300   4187.6174      0              1            
    110400   5004.9405      0              1            
    110500   4143.8421      0              1            
    110600   5272.4161      0              1            
    110700   4197.6285      0              1            
    110800   4647.9145      0              1            
    110900   5326.3191      0              1            
    111000   4663.2434      0              1            
    111100   4879.9006      0              1            
    111200   4886.3443      0              1            
    111300   4648.4903      0              1            
    111400   4412.3102      0              1            
    111500   5329.8696      0              1            
    111600   4678.6297      0              1            
    111700   4978.3163      0              1            
    111800   5484.1232      0              1            
    111900   4589.6755      0              1            
    112000   3735.9916      0              1            
    112100   4480.3582      0              1            
    112200   4216.6773      0              1            
    112300   4935.0256      0              1            
    112400   4750.1902      0              1            
    112500   4717.705       0              1            
    112600   4920.3468      0              1            
    112700   4305.1635      0              1            
    112800   4390.4653      0              1            
    112900   4381.4612      0              1            
    113000   4684.3335      0              1            
    113100   4233.6103      0              1            
    113200   4854.7021      0              1            
    113300   5201.7396      0              1            
    113400   4971.047       0              1            
    113500   4532.4805      0              1            
    113600   4930.3705      0              1            
    113700   4849.6761      0              1            
    113800   4721.058       0              1            
    113900   4785.9756      0              1            
    114000   4616.9616      0              1            
    114100   5093.6318      0              1            
    114200   5031.6777      0              1            
    114300   4804.3529      0              1            
    114400   4845.7846      0              1            
    114500   4437.48        0              1            
    114600   4546.7865      0              1            
    114700   4924.5759      0              1            
    114800   4940.5673      0              1            
    114900   4900.789       0              1            
    115000   4551.7136      0              1            
    115100   4393.2263      0              1            
    115200   4585.559       0              1            
    115300   4647.8208      0              1            
    115400   4507.8793      0              1            
    115500   4963.0123      0              1            
    115600   4385.1194      0              1            
    115700   4181.7631      0              1            
    115800   4382.9771      0              1            
    115900   4853.9953      0              1            
    116000   4290.0463      0              1            
    116100   4887.3555      0              1            
    116200   4774.888       0              1            
    116300   4358.214       0              1            
    116400   4623.4375      0              1            
    116500   4873.9296      0              1            
    116600   5193.8538      0              1            
    116700   4780.7815      0              1            
    116800   4435.3235      0              1            
    116900   4609.7674      0              1            
    117000   4767.4162      0              1            
    117100   4650.9405      0              1            
    117200   4511.8908      0              1            
    117300   4468.159       0              1            
    117400   4716.7479      0              1            
    117500   4632.7216      0              1            
    117600   5147.7476      0              1            
    117700   4246.2291      0              1            
    117800   4162.3061      0              1            
    117900   5084.6965      0              1            
    118000   4563.5639      0              1            
    118100   4251.7408      0              1            
    118200   4203.5431      0              1            
    118300   4548.7891      0              1            
    118400   5185.5079      0              1            
    118500   4267.9099      0              1            
    118600   4865.104       0              1            
    118700   4954.5414      0              1            
    118800   4597.6605      0              1            
    118900   5185.754       0              1            
    119000   4057.9451      0              1            
    119100   4874.4551      0              1            
    119200   4948.9858      0              1            
    119300   5273.3974      0              1            
    119400   5114.9756      0              1            
    119500   5386.3423      0              1            
    119600   4859.5111      0              1            
    119700   4443.9868      0              1            
    119800   4707.3708      0              1            
    119900   4963.2741      0              1            
    120000   4831.3036      0              1            
    120100   5144.6422      0              1            
    120200   4722.7019      0              1            
    120300   4954.3056      0              1            
    120400   4409.9905      0              1            
    120500   4845.9251      0              1            
    120600   4395.029       0              1            
    120700   4471.1703      0              1            
    120800   4925.9937      0              1            
    120900   4258.5368      0              1            
    121000   4630.9007      0              1            
    121100   5058.0017      0              1            
    121200   4684.314       0              1            
    121300   4949.5206      0              1            
    121400   5160.3487      0              1            
    121500   4719.5228      0              1            
    121600   4203.699       0              1            
    121700   4648.9932      0              1            
    121800   5143.1207      0              1            
    121900   4190.514       0              1            
    122000   4959.75        0              1            
    122100   4902.9225      0              1            
    122200   5283.8867      0              1            
    122300   4723.8319      0              1            
    122400   4505.5362      0              1            
    122500   4479.6516      0              1            
    122600   4446.5142      0              1            
    122700   4750.9236      0              1            
    122800   4167.3349      0              1            
    122900   4840.2078      0              1            
    123000   4389.9994      0              1            
    123100   4236.7609      0              1            
    123200   4823.2014      0              1            
    123300   5087.6049      0              1            
    123400   5128.5209      0              1            
    123500   4846.0783      0              1            
    123600   4404.9646      0              1            
    123700   4992.4182      0              1            
    123800   5054.1781      0              1            
    123900   3981.6262      0              1            
    124000   4499.3286      0              1            
    124100   4758.521       0              1            
    124200   5021.0985      0              1            
    124300   5048.7873      0              1            
    124400   4636.6359      0              1            
    124500   4230.1637      0              1            
    124600   4809.0483      0              1            
    124700   4416.5871      0              1            
    124800   4671.0746      0              1            
    124900   4372.0714      0              1            
    125000   4616.0023      0              1            
    125100   4626.0389      0              1            
    125200   4299.623       0              1            
    125300   4771.8965      0              1            
    125400   4374.0966      0              1            
    125500   4434.0149      0              1            
    125600   4698.5029      0              1            
    125700   4946.3023      0              1            
    125800   4776.158       0              1            
    125900   4872.6237      0              1            
    126000   5076.9404      0              1            
    126100   3848.9753      0              1            
    126200   4655.7262      0              1            
    126300   4835.5199      0              1            
    126400   4311.74        0              1            
    126500   4699.4219      0              1            
    126600   4913.9909      0              1            
    126700   4879.7997      0              1            
    126800   5267.5112      0              1            
    126900   4707.4008      0              1            
    127000   4458.667       0              1            
    127100   3649.7536      0              1            
    127200   5196.8613      0              1            
    127300   4562.2061      0              1            
    127400   4615.0708      0              1            
    127500   4742.8745      0              1            
    127600   4266.1483      0              1            
    127700   4714.9555      0              1            
    127800   4447.3854      0              1            
    127900   4553.7093      0              1            
    128000   4526.2201      0              1            
    128100   4723.3045      0              1            
    128200   4290.1661      0              1            
    128300   4697.7423      0              1            
    128400   4846.7826      0              1            
    128500   4675.733       0              1            
    128600   4394.7634      0              1            
    128700   5105.1798      0              1            
    128800   4408.5569      0              1            
    128900   4615.7144      0              1            
    129000   4304.9566      0              1            
    129100   4366.7423      0              1            
    129200   4622.3301      0              1            
    129300   4527.5668      0              1            
    129400   4385.7664      0              1            
    129500   4600.0306      0              1            
    129600   4520.7532      0              1            
    129700   5045.818       0              1            
    129800   4851.083       0              1            
    129900   5212.2136      0              1            
    130000   4137.6947      0              1            
    130100   4415.8588      0              1            
    130200   4800.8025      0              1            
    130300   4932.1363      0              1            
    130400   5419.7621      0              1            
    130500   4711.2884      0              1            
    130600   4222.4269      0              1            
    130700   4974.856       0              1            
    130800   5028.6141      0              1            
    130900   4783.9456      0              1            
    131000   4916.4783      0              1            
    131100   4536.5767      0              1            
    131200   4419.9169      0              1            
    131300   4615.3965      0              1            
    131400   4880.6197      0              1            
    131500   4558.4174      0              1            
    131600   5054.8696      0              1            
    131700   4618.8594      0              1            
    131800   4062.6507      0              1            
    131900   4579.0245      0              1            
    132000   4731.9034      0              1            
    132100   4449.3047      0              1            
    132200   4105.1106      0              1            
    132300   4464.1295      0              1            
    132400   4624.4216      0              1            
    132500   4136.6693      0              1            
    132600   5134.1681      0              1            
    132700   4483.3761      0              1            
    132800   4586.8422      0              1            
    132900   4873.9685      0              1            
    133000   5204.4572      0              1            
    133100   5144.6342      0              1            
    133200   4552.2503      0              1            
    133300   5017.42        0              1            
    133400   4631.5607      0              1            
    133500   5398.1481      0              1            
    133600   4537.5804      0              1            
    133700   4314.9687      0              1            
    133800   4415.5763      0              1            
    133900   4774.8119      0              1            
    134000   4538.1495      0              1            
    134100   4903.5505      0              1            
    134200   4558.8318      0              1            
    134300   4948.0001      0              1            
    134400   4366.4109      0              1            
    134500   4859.4186      0              1            
    134600   4838.6192      0              1            
    134700   4497.3517      0              1            
    134800   4589.8365      0              1            
    134900   4606.4264      0              1            
    135000   4120.9014      0              1            
    135100   4252.1856      0              1            
    135200   4631.4929      0              1            
    135300   5320.743       0              1            
    135400   4234.1032      0              1            
    135500   4683.7258      0              1            
    135600   4334.4275      0              1            
    135700   4705.4619      0              1            
    135800   4858.2129      0              1            
    135900   4691.5372      0              1            
    136000   4579.8133      0              1            
[...]
    248200   5147.2544      0              1            
    248300   4477.1983      0              1            
    248400   4695.5048      0              1            
    248500   4464.5648      0              1            
    248600   4936.7482      0              1            
    248700   4594.3056      0              1            
    248800   4308.0275      0              1            
    248900   5143.1917      0              1            
    249000   4930.6027      0              1            
    249100   4703.7768      0              1            
    249200   5298.8193      0              1            
    249300   3936.4072      0              1            
    249400   4833.1483      0              1            
    249500   4657.027       0              1            
    249600   4120.3016      0              1            
    249700   4168.7174      0              1            
    249800   4656.1391      0              1            
    249900   4331.333       0              1            
    250000   4360.6252      0              1            
    250100   4717.0684      0              1            
    250200   4666.6572      0              1            
    250300   4111.6376      0              1            
    250400   4524.0144      0              1            
    250500   4777.8129      0              1            
    250600   4517.1505      0              1            
    250700   4440.9075      0              1            
    250800   4357.5779      0              1            
    250900   4936.822       0              1            
    251000   4149.0556      0              1            
    251100   4569.8838      0              1            
    251200   4291.4474      0              1            
    251300   4749.6845      0              1            
    251400   4196.8709      0              1            
    251500   4479.9322      0              1            
    251600   5314.184       0              1            
    251700   3972.5336      0              1            
    251800   4438.2517      0              1            
    251900   4653.5991      0              1            
    252000   4305.7549      0              1            
    252100   3981.4787      0              1            
    252200   4621.2631      0              1            
    252300   4208.8805      0              1            
    252400   4282.3361      0              1            
    252500   4433.0794      0              1            
    252600   4417.134       0              1            
    252700   4539.7476      0              1            
    252800   4573.8685      0              1            
    252900   4832.5819      0              1            
    253000   4537.8659      0              1            
    253100   4622.1305      0              1            
    253200   4963.9038      0              1            
    253300   4138.7997      0              1            
    253400   4026.2011      0              1            
    253500   4830.1882      0              1            
    253600   3766.2304      0              1            
    253700   4632.0041      0              1            
    253800   4082.4465      0              1            
    253900   4524.632       0              1            
    254000   4563.1363      0              1            
    254100   4345.307       0              1            
    254200   4435.1211      0              1            
    254300   4754.921       0              1            
    254400   4621.7421      0              1            
    254500   4537.263       0              1            
    254600   4513.85        0              1            
    254700   5021.8991      0              1            
    254800   4385.5817      0              1            
    254900   4648.1726      0              1            
    255000   4239.8204      0              1            
    255100   4543.9513      0              1            
    255200   4338.4768      0              1            
    255300   4496.5216      0              1            
    255400   4861.3492      0              1            
    255500   4769.4425      0              1            
    255600   5255.2634      0              1            
    255700   4696.3069      0              1            
    255800   4499.284       0              1            
    255900   4649.0818      0              1            
    256000   5105.3345      0              1            
    256100   4472.1249      0              1            
    256200   4934.5275      0              1            
    256300   4567.1284      0              1            
    256400   4828.6522      0              1            
    256500   5066.9575      0              1            
    256600   4807.2194      0              1            
    256700   5054.5351      0              1            
    256800   3860.1951      0              1            
    256900   5107.2544      0              1            
    257000   4907.7029      0              1            
    257100   4912.8681      0              1            
    257200   5006.1523      0              1            
    257300   4975.6253      0              1            
    257400   4790.6409      0              1            
    257500   4912.1556      0              1            
    257600   4689.0006      0              1            
    257700   5051.763       0              1            
    257800   4364.1018      0              1            
    257900   4375.3227      0              1            
    258000   5094.8024      0              1            
    258100   4529.8674      0              1            
    258200   4693.6623      0              1            
    258300   4120.706       0              1            
    258400   4646.6875      0              1            
    258500   4595.1808      0              1            
    258600   4226.27        0              1            
    258700   4540.5464      0              1            
    258800   4709.6049      0              1            
    258900   4907.5682      0              1            
    259000   4751.6731      0              1            
    259100   4825.2462      0              1            
    259200   4886.5823      0              1            
    259300   4514.7279      0              1            
    259400   4918.1261      0              1            
    259500   4299.1882      0              1            
    259600   4373.4509      0              1            
    259700   4761.0904      0              1            
    259800   4711.2513      0              1            
    259900   4699.8523      0              1            
    260000   4336.4414      0              1            
    260100   5097.865       0              1            
    260200   4619.305       0              1            
    260300   4512.7116      0              1            
    260400   4839.3819      0              1            
    260500   5228.8578      0              1            
    260600   4230.0175      0              1            
    260700   4527.89        0              1            
    260800   4513.9443      0              1            
    260900   4212.1611      0              1            
    261000   4648.1112      0              1            
    261100   4723.5009      0              1            
    261200   4896.1403      0              1            
    261300   4635.1958      0              1            
    261400   4775.7112      0              1            
    261500   4476.0119      0              1            
    261600   4566.2299      0              1            
    261700   4745.3426      0              1            
    261800   4797.5167      0              1            
    261900   4629.261       0              1            
    262000   4754.6893      0              1            
    262100   4405.2495      0              1            
    262200   4219.2441      0              1            
    262300   4652.6683      0              1            
    262400   4588.5918      0              1            
    262500   4998.7433      0              1            
    262600   5048.746       0              1            
    262700   4866.8649      0              1            
    262800   5587.9836      0              1            
    262900   4546.1752      0              1            
    263000   4407.9315      0              1            
    263100   4562.1759      0              1            
    263200   4737.7471      0              1            
    263300   4380.1794      0              1            
    263400   4482.4597      0              1            
    263500   4423.729       0              1            
    263600   4736.865       0              1            
    263700   4542.6559      0              1            
    263800   4637.0474      0              1            
    263900   3811.6784      0              1            
    264000   4528.1933      0              1            
    264100   4576.1982      0              1            
    264200   4292.8642      0              1            
    264300   4285.7577      0              1            
    264400   4822.3254      0              1            
    264500   4817.081       0              1            
    264600   4492.6884      0              1            
    264700   4500.9201      0              1            
    264800   4088.8137      0              1            
    264900   3901.7175      0              1            
    265000   4436.759       0              1            
    265100   4739.6238      0              1            
    265200   4470.9583      0              1            
    265300   4295.0804      0              1            
    265400   4847.7776      0              1            
    265500   4467.9599      0              1            
    265600   4572.2411      0              1            
    265700   5137.7264      0              1            
    265800   4274.4648      0              1            
    265900   5092.1564      0              1            
    266000   4895.7988      0              1            
    266100   4399.3456      0              1            
    266200   3961.7513      0              1            
    266300   3740.6711      0              1            
    266400   4356.4923      0              1            
    266500   4490.6712      0              1            
    266600   4803.5736      0              1            
    266700   4989.8849      0              1            
    266800   4869.1713      0              1            
    266900   4413.3751      0              1            
    267000   4588.107       0              1            
    267100   4572.5787      0              1            
    267200   4903.654       0              1            
    267300   4513.178       0              1            
    267400   5217.6763      0              1            
    267500   4926.7718      0              1            
    267600   4496.8932      0              1            
    267700   4017.6888      0              1            
    267800   4987.9247      0              1            
    267900   4644.9591      0              1            
    268000   4992.7621      0              1            
    268100   4483.5048      0              1            
    268200   5105.1419      0              1            
    268300   4789.9105      0              1            
    268400   4631.9636      0              1            
    268500   4285.9595      0              1            
    268600   5137.7641      0              1            
    268700   4768.4613      0              1            
    268800   4808.7023      0              1            
    268900   3992.3514      0              1            
    269000   5051.7056      0              1            
    269100   3908.7452      0              1            
    269200   4595.2899      0              1            
    269300   4519.7466      0              1            
    269400   4441.6945      0              1            
    269500   4454.573       0              1            
    269600   4967.8188      0              1            
    269700   4636.4763      0              1            
    269800   4614.3497      0              1            
    269900   4717.6398      0              1            
    270000   3888.8002      0              1            
    270100   5061.3024      0              1            
    270200   4731.9306      0              1            
    270300   4280.6587      0              1            
    270400   4518.117       0              1            
    270500   4749.2152      0              1            
    270600   4177.4709      0              1            
    270700   5328.1441      0              1            
    270800   4381.1871      0              1            
    270900   4734.1827      0              1            
    271000   5066.6012      0              1            
    271100   4759.1029      0              1            
    271200   4456.2256      0              1            
    271300   4990.2498      0              1            
    271400   4829.8143      0              1            
    271500   4617.3138      0              1            
    271600   4180.0783      0              1            
    271700   4672.7183      0              1            
    271800   4523.9897      0              1            
    271900   4505.4362      0              1            
    272000   4321.4649      0              1            
    272100   4424.9971      0              1            
    272200   5145.5634      0              1            
    272300   4270.7861      0              1            
    272400   3977.1256      0              1            
    272500   4165.1187      0              1            
    272600   5420.1372      0              1            
    272700   4816.9328      0              1            
    272800   4559.3569      0              1            
    272900   4905.1555      0              1            
    273000   4367.4495      0              1            
    273100   4591.0625      0              1            
    273200   5017.994       0              1            
    273300   4799.319       0              1            
    273400   4829.2141      0              1            
    273500   5200.6479      0              1            
    273600   3835.4226      0              1            
    273700   4209.8858      0              1            
    273800   4086.3456      0              1            
    273900   4324.6617      0              1            
    274000   4807.9599      0              1            
    274100   4460.5364      0              1            
    274200   4406.2454      0              1            
    274300   4257.2052      0              1            
    274400   4490.6585      0              1            
    274500   4535.6482      0              1            
    274600   4745.3662      0              1            
    274700   5043.1795      0              1            
    274800   4462.5188      0              1            
    274900   5113.3102      0              1            
    275000   4433.6773      0              1            
    275100   5220.9811      0              1            
    275200   4374.6728      0              1            
    275300   5153.0062      0              1            
    275400   4542.6406      0              1            
    275500   4864.5401      0              1            
    275600   4556.2932      0              1            
    275700   4086.9026      0              1            
    275800   4168.6619      0              1            
    275900   4797.1823      0              1            
    276000   4526.0569      0              1            
    276100   4685.3285      0              1            
    276200   5040.477       0              1            
    276300   4493.7168      0              1            
    276400   5183.0617      0              1            
    276500   4590.7241      0              1            
    276600   4566.8476      0              1            
    276700   4915.728       0              1            
    276800   4508.1044      0              1            
    276900   4682.9284      0              1            
    277000   4592.3335      0              1            
    277100   4861.1399      0              1            
    277200   4485.1287      0              1            
    277300   4326.5383      0              1            
    277400   4821.7868      0              1            
    277500   5417.5241      0              1            
    277600   4068.9838      0              1            
    277700   4965.3397      0              1            
    277800   4342.9291      0              1            
    277900   4340.6965      0              1            
    278000   4127.7041      0              1            
    278100   4468.8393      0              1            
    278200   4773.8054      0              1            
    278300   4909.9044      0              1            
    278400   4729.8512      0              1            
    278500   4700.6361      0              1            
    278600   4367.2991      0              1            
    278700   4752.0599      0              1            
    278800   4320.1782      0              1            
    278900   4844.0504      0              1            
    279000   4063.7421      0              1            
    279100   4597.8317      0              1            
    279200   5005.6605      0              1            
    279300   5092.4923      0              1            
    279400   4610.9071      0              1            
    279500   4736.7382      0              1            
    279600   4935.0769      0              1            
    279700   4880.2566      0              1            
    279800   4488.925       0              1            
    279900   4703.0556      0              1            
    280000   4487.7143      0              1            
    280100   3968.6082      0              1            
    280200   5345.2489      0              1            
    280300   5137.1207      0              1            
    280400   4314.1621      0              1            
    280500   4494.4895      0              1            
    280600   4852.6099      0              1            
    280700   4375.9615      0              1            
    280800   4392.0081      0              1            
    280900   5394.9057      0              1            
    281000   5013.7225      0              1            
    281100   4316.4353      0              1            
    281200   4444.2906      0              1            
    281300   4137.3548      0              1            
    281400   4201.1163      0              1            
    281500   4509.9119      0              1            
    281600   4939.3912      0              1            
    281700   4148.5177      0              1            
    281800   4332.3799      0              1            
    281900   4607.743       0              1            
    282000   4403.9993      0              1            
    282100   4897.8228      0              1            
    282200   4295.1495      0              1            
    282300   4720.2457      0              1            
    282400   4647.2597      0              1            
    282500   4503.7049      0              1            
    282600   4508.7005      0              1            
    282700   4257.2748      0              1            
    282800   5020.2173      0              1            
    282900   4717.9165      0              1            
    283000   4574.4512      0              1            
    283100   4994.9324      0              1            
