LAMMPS (22 Dec 2022)
Reading data file ...
  orthogonal box = (0 0 0) to (158.5 158.5 100)
  1 by 1 by 1 MPI processor grid
  reading atoms ...
  100 atoms
  scanning bonds ...
  1 = max bonds/atom
  scanning angles ...
  1 = max angles/atom
  scanning dihedrals ...
  1 = max dihedrals/atom
  reading bonds ...
  99 bonds
  reading angles ...
  98 angles
  reading dihedrals ...
  97 dihedrals
Finding 1-2 1-3 1-4 neighbors ...
  special bond factors lj:    0        0        0       
  special bond factors coul:  0        0        0       
     2 = max # of 1-2 neighbors
     2 = max # of 1-3 neighbors
     4 = max # of 1-4 neighbors
     6 = max # of special neighbors
  special bonds CPU = 0.000 seconds
  read_data CPU = 0.002 seconds
POYO!!!!!! 85.000000 2.200000 1.530000
Generated 0 of 0 mixed pair_coeff terms from geometric mixing rule
Neighbor list info ...
  update: every = 10 steps, delay = 0 steps, check = yes
  max neighbors/atom: 10000, page size: 100000
  master list distance cutoff = 10.9
  ghost atom cutoff = 10.9
  binsize = 5.45, bins = 30 30 19
  1 neighbor lists, perpetual/occasional/extra = 1 0 0
  (1) pair lj/cut, perpetual
      attributes: half, newton on
      pair build: half/bin/newton
      stencil: half/bin/3d
      bin: standard
Setting up Verlet run ...
  Unit style    : real
  Current step  : 0
  Time step     : 1
Per MPI rank memory allocation (min/avg/max) = 8.245 | 8.245 | 8.245 Mbytes
   Step          Temp          E_pair         E_mol          TotEng         Press     
         0   5000          -0.53878186     8231.2996      9706.2618     -53.43835     
       100   4780.6862     -0.85415679     4489.2297      5899.157      -26.025797    
       200   4726.471      -1.1022179      4063.285       5456.9653     -6.8455981    
       300   4807.7604     -0.61217735     3748.1352      5166.294      -0.81261302   
       400   4476.1388      8.750098       3536.0153      4865.6748      13.597454    
       500   4495.4206      3.7770343      3589.7177      4920.0943     -4.7261368    
       600   4630.6117      0.44194523     3323.7601      4690.6965      8.7882081    
       700   4624.9782     -1.0076502      3310.1159      4673.9402      5.2578819    
       800   4865.6051     -1.3515954      3211.2737      4645.7631      1.3290432    
       900   4684.3798     -1.2915878      3371.7729      4752.8426     -3.0803143    
      1000   4556.9478      1.9660167      3436.4173      4783.1395      6.9622531    
      1100   4359.8515      9.8316632      3219.1176      4515.5423      12.710512    
      1200   5048.4776     -0.73713727     3299.3442      4788.4138      4.4758523    
      1300   4705.6031     -2.3081169      3257.1578      4643.4741      9.2593264    
      1400   4773.3785     -1.4391285      3445.5105      4852.6963      0.55226948   
      1500   4878.7583      3.1475212      3305.2793      4748.1493      11.885394    
      1600   4805.7929      3.2549623      3493.1092      4914.5546      3.0467515    
      1700   4964.1398      1.9503859      3153.4518      4620.3208      10.576819    
      1800   4815.5066      7.2923586      3157.5432      4585.8925      4.454209     
      1900   5034.249       25.788568      3141.0552      4652.4516     -8.6551383    
      2000   4125.3975      8.8588021      3166.2639      4392.5283      15.373636    
      2100   4806.2414      14.243937      3059.8527      4492.4194      14.955463    
      2200   4658.9419      4.5673724      3040.7089      4420.131       2.9817872    
      2300   4769.9383      4.393038       3133.3993      4545.402       9.8551915    
      2400   4618.2779      3.5954738      3185.8058      4552.256      -8.8166643    
      2500   4846.6733      0.067873898    3098.2262      4528.5483     -11.531126    
      2600   5113.6472      0.61842823     2957.9877      4467.6444      9.6229714    
      2700   4301.3195      4.6466893      3201.8254      4475.7923      3.1992396    
      2800   4669.1188      2.6272109      3228.9363      4609.4214      3.8341071    
      2900   5075.1139      4.3779553      2889.4692      4391.5143      11.190935    
      3000   4489.7608      7.1086942      3250.0442      4582.0822      4.7288467    
      3100   5204.5704      18.670002      3125.2698      4679.8096      20.421285    
      3200   4543.2001      5.7526484      3381.9537      4728.4055     -7.9841069    
      3300   4784.7157      10.657657      3049.6054      4472.2336      27.112464    
      3400   4875.4614      14.672009      3211.9352      4665.3568      5.4315537    
      3500   4640.6125      1.5652636      2939.484       4310.4949      22.366452    
      3600   5091.2375      0.26337059     2962.2139      4464.9025      2.3892589    
      3700   4671.3296     -0.30749483     3133.7158      4511.9186     -1.9551806    
      3800   4738.411       5.0270028      3333.8307      4737.1637      4.9468719    
      3900   4615.6709      1.9826835      3245.1012      4609.1692     -9.1845235    
      4000   4614.6503     -2.0156615      3170.1178      4529.8863     -5.8318788    
      4100   5050.5569     -2.8455288      3084.0988      4571.6736      4.9703907    
      4200   5263.0135      0.47305117     3088.983       4642.5724      6.6730312    
      4300   4901.5729     -1.4057178      3068.8271      4513.8765     -13.731831    
      4400   4242.7622     -2.3373984      3066.8184      4316.5209      3.9774602    
      4500   4569.1605      4.4277733      3020.5997      4373.3876      12.598788    
      4600   4475.9019      7.5621213      3155.8709      4484.2726      4.2369939    
      4700   5015.9745      8.9600609      2846.4183      4335.5934      11.270249    
      4800   4509.8612      24.997624      3104.4455      4460.3041      14.651316    
      4900   4932.1258      1.8882416      3118.9827      4576.3422     -1.9245208    
      5000   5358.8         2.1339608      3120.7364      4704.2533      18.288082    
      5100   4544.2202      0.34856773     3268.158       4609.5068     -5.4744801    
      5200   4630.1857      4.2744821      3008.6516      4379.2948      8.4565742    
      5300   4873.25        4.4303551      3156.9397      4599.4671      6.6171992    
      5400   4568.2643      0.33472315     3047.4963      4395.9267     -1.4996846    
      5500   4744.1717     -1.0105788      3074.8466      4473.842       9.3420326    
      5600   4730.4265      2.9718341      3147.5223      4546.4439      15.209372    
      5700   5616.1289      23.345928      3169.7096      4850.3762      1.166529     
      5800   5208.7644      12.347845      3060.1033      4609.5585      3.9586406    
      5900   5074.3294      5.0760009      2992.1709      4494.6825      15.255515    
      6000   4897.0893      7.043195       2938.6929      4390.8681      6.7233913    
      6100   4718.4991      3.1242695      3062.614       4458.1682      12.906169    
      6200   4342.7996     -1.1419888      3166.9548      4447.3738      17.761848    
      6300   4222.5686      7.0607557      2951.8439      4204.9855     -13.275383    
      6400   4789.9378      15.127451      3050.8328      4479.4718      14.980526    
      6500   4688.9243     -0.81175018     2880.8224      4263.7131      11.128639    
      6600   4250.4813     -2.0624524      2978.3168      4230.5722      3.7791336    
      6700   4689.4744      0.34851988     3060.9426      4445.1559     -3.3637217    
      6800   4830.9878     -0.72690294     3067.2336      4492.1322     -1.7192283    
      6900   4736.3383      10.281415      3103.8872      4511.863      -6.6399351    
      7000   4681.0276      16.008142      2837.3621      4234.7424      16.523825    
      7100   4936.7843      7.046716       2996.9317      4460.8244     -4.1008043    
      7200   4771.563      -1.6905669      3241.1947      4647.5933      15.823628    
      7300   4440.7445     -0.16361328     3040.0372      4350.3381      8.949705     
      7400   4575.7716      3.4273065      2995.3089      4349.0473     -2.1111344    
      7500   5073.2498      3.4791402      3071.8243      4572.4205      4.2052783    
      7600   4574.8399      4.4264592      2937.6121      4292.0747      2.3574917    
      7700   4788.3333      5.5257759      3005.72        4424.2839      4.9058481    
      7800   4492.9806      18.395905      3027.2787      4371.5541      11.536831    
      7900   4432.8445      9.6058066      3012.4158      4330.1548      5.5603625    
      8000   4978.883       6.5536102      3137.793       4613.6159     -3.3748329    
      8100   5130.6844      4.4287136      2931.6924      4450.1871      7.8784194    
      8200   4815.358       4.6622604      2896.9677      4322.643      -1.5006843    
      8300   4565.0909      1.757665       2880.048       4228.9649     -2.3237117    
      8400   4410.059       2.9606416      3174.7192      4479.0891      5.7496842    
      8500   5005.0526      24.361737      2943.5238      4444.8776      21.202137    
      8600   4877.6594     -0.48355927     2974.5462      4413.4609      5.9224042    
      8700   5032.1845     -2.5122672      3064.3776      4546.8639     -3.803842     
      8800   5289.0967     -2.0388722      2973.1079      4531.8824      33.256764    
      8900   4878.9553     -2.7897612      2942.4265      4379.4174      19.833018    
      9000   5179.5415     -2.6910546      2961.3942      4487.1869      0.72822179   
      9100   4597.3254      3.7276387      2943.5131      4303.9124     -13.070542    
      9200   4575.0177      2.5285972      2929.8999      4282.5171      7.1095357    
      9300   5094.6667      1.021132       2999.3969      4503.8552      18.425166    
      9400   5107.6629     -1.986028       3063.0699      4568.3562     -8.3792128    
      9500   5325.4384      13.11952       3032.1932      4616.8507      12.954293    
      9600   4771.7962      28.313674      2975.6552      4412.1269     -3.0419324    
      9700   5057.2208      3.9715163      2926.6316      4422.99        1.2479739    
      9800   4293.0017     -1.9877606      2931.018       4195.8958      7.6664959    
      9900   4770.9815     -0.013402509    3087.3706      4495.2748     -3.2650615    
     10000   4439.0028      7.9403822      2973.3137      4291.2047      4.5185316    
     10100   4749.6986      6.6735303      2910.3902      4318.7007      20.054861    
     10200   4740.0477      6.7310369      2795.5311      4201.0511      19.462564    
     10300   4297.7962     -3.9081233      2736.7911      4001.1635      21.017628    
     10400   4068.488       7.0387696      2753.7048      3961.3551      3.9420212    
     10500   5006.6771      4.5005264      2609.8585      4091.8305      3.9826289    
     10600   4150.436      -1.4928292      2939.1793      4162.4809      7.1892551    
     10700   5145.3034      10.587997      2746.4082      4275.3762      25.341986    
     10800   5297.07        3.9338945      2833.3408      4400.4411      5.3563497    
     10900   4819.8905      1.050624       2706.2893      4129.6906     -1.8400413    
     11000   5004.1705      10.414779      2726.4307      4213.5772      16.892442    
     11100   5087.2604     -1.6992056      2794.873       4294.4253      21.586426    
     11200   4634.6913      45.170938      2772.8318      4185.7011      10.666169    
     11300   4595.9512      23.818749      2898.6714      4278.7562     -3.0364994    
     11400   4204.1166      5.4974417      2859.7336      4105.8666     -15.442469    
     11500   4457.7585     -0.81403379     2775.8396      4090.5109      15.040612    
     11600   4619.2225      4.6026452      2689.1111      4056.8472      4.4278356    
     11700   4380.3993      4.7009538      2797.7155      4095.0731      8.7595327    
     11800   5123.3595      4.1720669      2772.3329      4288.4094      2.9060246    
     11900   4744.6974      29.396685      2846.8948      4276.4526     -2.6486393    
     12000   4849.4208      7.0806259      2723.0917      4161.2373      10.507971    
     12100   4339.5357      2.682297       2863.0798      4146.3599     -1.3346026    
     12200   5208.2174      1.3273165      2883.4968      4421.7701      0.78305494   
     12300   4279.1078     -2.8550922      2795.7345      4055.645      -3.8226078    
     12400   4077.5374      3.2226755      2782.3724      3988.8771      2.2865425    
     12500   4936.2167     -1.4347567      2851.4105      4306.6543      1.9982533    
     12600   4410.9791      3.3514816      2889.8636      4194.8959     -11.516067    
     12700   5046.4489      1.3779717      2902.9305      4393.5165      7.3782636    
     12800   5017.8663      20.607329      2807.4407      4308.8214      16.581376    
     12900   4312.7144     -1.4463785      2751.7567      4022.9932      3.9499597    
     13000   4532.8361     -0.5753768      2883.9281      4220.9935      1.9113687    
     13100   4470.5714      4.694044       2868.3294      4192.29       -7.3203206    
     13200   4399.2728     -1.071861       2844.47        4141.6244     -0.64247716   
     13300   4225.2765      8.4949412      2827.6902      4083.0651     -0.55215614   
     13400   5294.7543      18.612361      2993.9583      4575.0537      26.362524    
     13500   5141.7422      20.847615      2806.6173      4344.7941      20.832804    
     13600   4451.5328      12.947309      2853.1209      4179.7164     -0.13038252   
     13700   4467.8088      2.9662174      2828.3895      4149.8069      7.0554698    
     13800   4708.9007      5.7503119      2741.1462      4136.494       5.9698858    
     13900   4708.8782      6.6842396      2715.5639      4111.839      -1.8066996    
     14000   5086.1067      13.903287      2908.6911      4423.5054      2.2978067    
     14100   4512.4871      8.3237445      2641.3467      3981.3063      8.3229506    
     14200   5002.8735      3.698454       2864.0506      4344.098       23.523643    
     14300   5059.0656      2.7903086      2971.5708      4467.2924      8.9126181    
     14400   3887.4276      11.055211      2762.6811      3920.9169      0.42160387   
     14500   4748.4401      1.4048977      2703.6543      4106.3248      13.586458    
     14600   4751.1553      13.32903       2876.5415      4291.9374     -14.049261    
     14700   5136.6514      1.2354463      2726.706       4243.7682      4.8891763    
     14800   4471.1875      40.723729      2840.3379      4200.5099      16.167173    
     14900   4737.1077      4.8067379      2863.0399      4265.768       6.3665579    
     15000   5122.1721      13.946276      2762.3016      4287.8019      13.166232    
     15100   4858.9188      29.44555       2850.1426      4313.456       19.651651    
     15200   4593.7948      8.1204483      2854.1706      4217.9208      4.4756682    
     15300   4383.3979      26.177533      2974.5985      4294.3176      5.1910568    
     15400   4778.8434      26.074191      2863.044       4299.3558      8.6529716    
     15500   4758.2995     -0.73396844     2723.485       4126.9262      8.3275063    
     15600   4675.2874      1.4843945      2896.5951      4277.7577     -15.254342    
     15700   5234.0181      20.233346      2812.342       4377.1352      6.2307418    
     15800   4697.3922      4.4168517      2924.838       4315.4563      1.4136874    
     15900   4918.9331      5.9130769      2885.4792      4342.9704      6.5909298    
     16000   4709.6966     -0.93890508     2748.5409      4137.4343     -1.1906251    
     16100   4872.9421      3.4767961      2860.1885      4301.6715     -10.35067     
     16200   4960.1041      5.4956112      2728.8077      4198.031       0.30740185   
     16300   4637.0835      3.7362304      2703.6576      4075.7981      6.6692706    
     16400   5009.6595      5.5234453      2762.2814      4246.1564      8.2673142    
     16500   4289.4114      20.059051      2773.4852      4059.3503      3.1547952    
     16600   5014.7867      5.6653414      2777.386       4262.9159      1.1898461    
     16700   4955.0932      12.479847      2651.477       4126.2059      1.9540178    
     16800   4930.7374     -0.54743667     2976.6169      4431.1311      22.186384    
     16900   5428.3671      12.994092      2816.0235      4430.9298      13.373036    
     17000   4929.8879      0.81102442     2876.1498      4331.7718      3.3717147    
     17100   4837.9188      8.989818       2884.0693      4320.7299      5.5700266    
     17200   4225.402       15.965607      2763.426       4026.3085      10.379165    
     17300   3958.0487      16.982511      2881.2786      4066.2821      4.1045813    
     17400   4653.1613      3.731004       2748.8053      4125.6851      7.8670848    
     17500   5204.872      -2.0922735      2809.9444      4343.8109     -0.78299617   
     17600   4763.8336      7.2081355      2733.8834      4146.8998      3.975566     
     17700   4669.854       18.707345      2867.2666      4264.0488      3.580596     
     17800   4299.0888      1.9331676      2930.0285      4200.6237      6.4141831    
     17900   4373.5146      3.1317591      2926.0264      4219.7831      24.513701    
     18000   4998.2939      8.7241446      2844.3612      4328.0829      15.461952    
     18100   4361.8487      4.7582896      3033.573       4325.5137     -8.4691534    
     18200   4221.7352      2.0530514      2969.9127      4217.8007     -0.4713005    
     18300   4719.9861      6.0637138      2677.6319      4076.5644      11.967829    
     18400   4359.251       0.79194538     2811.1296      4098.3374      18.069904    
     18500   5355.6546      1.3891763      2688.106       4269.9499      14.839456    
     18600   5323.6422      3.5397113      2781.3003      4355.8479      26.047195    
     18700   4661.0164      3.4775985      2721.3121      4100.2565      15.72161     
     18800   5501.2764      2.531152       2759.5042      4385.4631      10.329786    
     18900   4327.0511      1.9332252      2834.3148      4113.1616      4.1736815    
     19000   4833.8933      7.4770666      2705.3859      4139.3458      8.3827659    
     19100   5067.5236     -1.3467799      2797.9546      4292.0351      3.5213605    
     19200   4233.9076     -0.39038717     2794.1318      4043.1684      5.1592777    
     19300   4836.8335     -3.5286494      2711.2441      4135.0659      5.5997147    
     19400   5344.6584     -2.6830474      2777.5478      4352.0745     -1.2217148    
     19500   4729.2169      1.0224874      2868.3375      4264.9528      0.28944161   
     19600   4645.8049     -2.3903076      2844.489       4213.0767      1.0887609    
     19700   4576.0545      3.8505473      2858.1077      4212.3529      5.8325817    
     19800   5068.3501     -1.6159087      2664.8243      4158.8795      11.657237    
     19900   4562.9122      3.7441062      2863.4299      4213.6903      29.116631    
     20000   5055.3278      3.415638       2800.3518      4295.5957      15.446964    
     20100   4528.7481      2.1867382      2815.434       4154.0551     -1.041147     
     20200   5035.3549     -2.7896034      2684.6091      4167.7538      13.304474    
     20300   4944.962       3.8628294      2732.3955      4195.5176      10.008388    
     20400   5373.757       7.0300851      2685.0555      4277.8823      15.124097    
     20500   4864.3852     -2.0295569      2932.6022      4366.0537      8.7535351    
     20600   4557.977      -3.6700784      2903.4512      4244.8411     -2.228669     
     20700   5083.3537      3.8775225      2763.0852      4267.0613      1.3974618    
     20800   4952.2759     -1.8565021      2749.4338      4208.9949      1.5575179    
     20900   4585.7197     -3.9650531      2626.1651      3975.4468      10.503365    
     21000   4729.0606     -1.3954688      2941.3323      4335.4835     -6.9041786    
     21100   4875.3312      3.8425363      2749.4084      4191.9622      26.969744    
     21200   4332.1407     -0.18560567     2797.2282      4075.4581      11.197526    
     21300   4925.1623      9.1454549      2780.6911      4243.2529      12.897885    
     21400   5550.5232      2.5401746      2899.1276      4539.6283     -0.82097848   
     21500   5388.7448      17.415183      2909.7099      4517.3447      9.6119054    
     21600   4568.8012      4.3922529      2786.6339      4139.2803      18.484094    
     21700   5099.7924     -0.74279331     2861.1347      4365.3416      2.6481974    
     21800   4437.0643      0.93709371     2869.9667      4180.2823     -8.9152309    
     21900   4723.5598      7.0575037      2838.3475      4239.3285      3.1140236    
     22000   4609.1789      1.6131378      2948.3905      4310.1733      8.6612794    
     22100   4325.5099      4.8518481      2830.2341      4111.5448      2.7088786    
     22200   4638.644       12.781749      2794.4425      4176.089      -2.2007086    
     22300   4853.8628      3.3441316      2673.3168      4109.0368      0.47531754   
     22400   4594.5446     -0.62501738     2828.2657      4183.4917      5.9157479    
     22500   4173.2209     -0.0068955315   2732.2244      3963.7358      3.7773928    
     22600   5165.7853      6.0213591      2730.7767      4261.2223     -4.2556935    
     22700   4353.3272     -2.68272        2749.0783      4031.0633      1.6625386    
     22800   5200.8168     -2.0947441      2740.2022      4272.8695     -4.3770696    
     22900   4942.9854      6.4622907      2726.6659      4191.8042      1.9048895    
     23000   4803.1717      1.4830139      2945.1976      4364.0976      11.462402    
     23100   4333.3457      1.242884       2957.5242      4237.5382      9.9010522    
     23200   4620.5546      4.9014919      2980.139       4348.567      -4.0414206    
     23300   4884.0878      2.4332156      2882.671       4326.3995      5.6104342    
     23400   4366.4426      11.633807      2976.3356      4276.5075      6.869459     
     23500   5243.5755      2.684608       3008.3864      4558.4512     -7.9804184    
     23600   5177.4637      2.3697368      3070.1491      4600.3893     -1.9157263    
     23700   4786.0301      25.952117      2645.6671      4083.9776      3.7875562    
     23800   4259.3937      10.796782      2792.2645      4060.0092     -0.50912122   
     23900   5004.1582      10.403438      2832.9881      4320.1196      10.584459    
     24000   4317.9316      16.878064      2846.9839      4138.0845      9.5633234    
     24100   4539.8711      8.9305534      2817.1931      4165.8405     -21.55206     
     24200   4552.4602      20.272013      2977.7673      4341.4712     -9.8057891    
     24300   5246.1091      7.8388544      2907.4239      4463.3906      4.5405815    
     24400   5378.0592     -2.6446438      2692.7843      4277.2059      15.298248    
     24500   5166.3965      2.9250764      2830.9468      4358.4765      13.142562    
     24600   4923.2211      14.216507      2845.3625      4312.4225      19.362594    
     24700   4987.2018      3.9544276      2761.9185      4237.5972     -11.343837    
     24800   4212.5572      33.432409      2775.7917      4052.3505      9.0212449    
     24900   4488.8126      12.827538      2874.126       4211.603      -0.25259159   
     25000   4868.7154      2.4495489      2838.5172      4277.7256      3.5841523    
     25100   4880.9857      23.843545      2660.7145      4124.9379      1.3881506    
     25200   4163.955       0.19533168     2807.1846      4036.1639     -12.484169    
     25300   5026.3954      13.3618        2759.2206      4255.8726     -1.4892593    
     25400   4939.973       29.817211      2745.3703      4232.9745      12.876453    
     25500   4616.2459      5.213162       2842.5115      4209.9798      2.9127587    
     25600   4574.5126      6.9414695      2809.7447      4166.6258      7.3362279    
     25700   4905.1216      0.30813199     2657.8727      4105.6832      7.7438584    
     25800   4393.5718     -2.0068148      2871.9326      4166.4697      15.150511    
     25900   5013.3903     -0.38208941     2821.2537      4300.3241     -4.4409893    
     26000   4786.7202     -0.70096127     2870.5475      4282.4086     -12.825913    
     26100   4498.3499      12.912087      2941.8159      4282.1919      2.2932582    
     26200   4482.2539      6.7626184      2892.8771      4222.3537      15.887726    
     26300   4294.3288      6.7548533      2873.6593      4147.6714      3.9890494    
     26400   4249.8852      4.0676422      2841.4376      4099.6472     -1.366647     
     26500   5417.4903      4.4897233      2956.0479      4559.2401     -2.8185463    
     26600   4763.2105      5.301397       3132.5388      4543.4646     -3.7888748    
     26700   4095.0475      18.681976      2992.7855      4219.9168     -5.8636555    
     26800   4151.5817      2.816854       2949.8693      4177.8187      3.2029634    
     26900   5252.4398      46.333468      3056.1502      4652.4797      10.796918    
     27000   5471.7183      21.176454      2775.0635      4410.9451      18.927816    
     27100   4897.271       10.720188      2951.5626      4407.4684     -3.3919371    
     27200   4041.5357      5.8806192      3067.9915      4266.5301     -13.10748     
     27300   4549.2736      2.6268507      2929.7872      4274.9056      3.8807845    
     27400   4846.6655      1.9459252      3111.6625      4543.8604      4.9612997    
     27500   4218.7856      1.4679552      3138.1277      4384.5602      9.4394285    
     27600   4460.1687      7.1208065      3037.0885      4360.406      -2.6457105    
     27700   5249.8258     -1.7350424      3051.8881      4599.3776     -3.1757989    
     27800   5387.9334      10.669454      2810.7237      4411.3733     -1.7467608    
     27900   4166.5144     -1.2938624      2883.8874      4112.1327     -1.2827084    
     28000   4995.2244     -0.12278566     2834.6434      4308.6123      2.4727601    
     28100   4775.7482     -3.1730334      2833.2493      4239.4005     -1.9765882    
     28200   4494.7238     -1.9205958      2807.5999      4132.0731      3.2213965    
     28300   4802.3837      10.317787      2657.4738      4084.976       19.692869    
     28400   5013.6937      7.3197329      2762.5402      4249.4019      9.9642143    
     28500   4805.3802      7.602724       2617.563       4043.2344      6.9148538    
     28600   5675.8515      5.7666223      2794.6567      4475.3682     -5.344083     
     28700   5492.3631      20.601013      2742.6996      4384.098       29.55142     
     28800   4962.4185      33.958772      2777.5756      4275.9451      28.631908    
     28900   4121.1448      6.8095253      2986.251       4209.2112      0.30814992   
     29000   4742.5599     -0.40824412     2970.2943      4369.4164      4.5580195    
     29100   5321.2336      20.024357      2912.882       4503.2034      7.6202644    
     29200   4224.2954      36.097187      2914.7896      4197.4772     -1.0215898    
     29300   5020.0472     -0.089744883    2815.6714      4296.9985     -8.682979     
     29400   4729.0185     -1.141257       2719.9767      4114.3697     -8.3496713    
     29500   4582.9882      1.3403936      2822.099       4175.8801     -2.3081057    
     29600   5153.5479      10.228848      2846.7744      4377.8162      11.04032     
     29700   4999.942       9.0388226      2762.8135      4247.3362      9.5504819    
     29800   5157.4831      10.919443      2864.0381      4396.9318      0.050161372  
     29900   4859.7614      26.592022      2819.0779      4279.7864      5.2244441    
     30000   4671.8332      2.2624742      2837.8488      4218.7702      2.6067775    
     30100   4554.9418     -1.1018418      2913.8939      4256.9562     -13.135965    
     30200   4416.8603      8.6459689      2740.0974      4052.1597     -8.8291321    
     30300   4540.024       8.5390675      2702.86        4051.161      -4.3117134    
     30400   4916.1386     -0.99093482     2850.2381      4300.0006      22.447763    
     30500   5277.2045     -1.5125544      2747.1121      4302.9036      23.896056    
     30600   4796.7539      16.279923      2850.668       4282.4709      30.58101     
     30700   5043.6538      3.8576749      2824.7485      4316.9894      25.680088    
     30800   4595.31        4.1744684      2874.0243      4234.2757      3.0946374    
     30900   5268.1584      2.7246885      2634.5437      4191.9029      13.50966     
     31000   5017.4968      3.2529949      2685.3969      4169.3142      13.769986    
     31100   4686.9998     -4.1815083      3022.1962      4401.1493      20.068108    
     31200   4659.0476      12.532039      2771.6688      4159.0867      3.3083388    
     31300   4977.376      -0.33660492     2734.663       4203.151      -0.088587452  
     31400   4877.4276     -1.6967665      2781.3093      4218.9424      6.0632309    
     31500   4964.6163     -4.1126395      2628.387       4089.3336      17.695941    
     31600   4525.1544     -2.9375496      2787.4936      4119.93        21.648824    
     31700   4813.5777      2.0297112      2672.0709      4094.5883      19.517999    
     31800   4268.542       9.53738        2874.7417      4143.9267     -10.294862    
     31900   4690.5285     -2.0804379      2892.889       4274.9845      18.619777    
     32000   4494.3168     -3.3480968      3037.755       4360.6807     -17.841642    
     32100   4966.0033     -2.063916       2990.7002      4454.1048      8.7241889    
     32200   4874.2167     -0.57082063     2769.1918      4207.0033      18.767591    
     32300   4572.5777      7.7465305      3027.7884      4384.9034      4.6742547    
     32400   4899.504       5.0561547      2930.1259      4381.0267     -2.8038584    
     32500   4158.2038      5.2371087      3000.1701      4232.494      -15.375632    
     32600   4731.1172      13.240873      2655.1971      4064.5916      7.4469334    
     32700   4722.4056      3.148773       2740.1702      4136.9018      9.0624657    
     32800   4955.9396      24.632107      2658.6998      4145.8307      13.115973    
     32900   4928.292       14.73214       2652.02        4121.0921      11.091489    
     33000   4770.4605      1.5227452      2794.4956      4203.7821      7.0522263    
     33100   4866.6622      13.85856       3001.0373      4451.0488      0.14328336   
     33200   4601.0761      0.5542794      2811.9604      4170.2931      20.008452    
     33300   4281.742       12.357097      2949.2834      4225.1834      15.88184     
     33400   4961.8651      33.880588      3012.3992      4510.5271      9.0003703    
     33500   4882.7998      0.65676738     3151.1303      4592.7022      14.633249    
     33600   4309.9625      36.286917      2796.6726      4104.8303      1.0094102    
     33700   4650.8838      6.4070416      2749.2804      4128.1642      17.591396    
     33800   4838.7501      10.145965      2827.336       4265.3981      7.8411569    
     33900   4721.8555      0.16380933     2758.2168      4151.8011      0.81922076   
     34000   4859.6791      21.979488      2849.2488      4305.3205      7.4340015    
     34100   4720.7993      21.748459      2725.6989      4140.5561      11.419184    
     34200   4912.0307      27.885566      2862.8838      4340.3106      25.229433    
     34300   5327.7458      25.605827      2872.3125      4470.1372      6.395778     
     34400   4490.0458      24.660164      2822.4308      4172.1044      16.327774    
     34500   4000.5504      7.7500287      2821.5377      4009.8509      12.152087    
     34600   4767.391       13.031183      3015.5323      4435.4215      0.72982898   
     34700   5276.8003      16.231541      2865.3233      4438.7397      14.849283    
     34800   3883.7336      6.4314241      2969.4751      4121.9971      5.8085418    
     34900   4644.4681      3.120438       3082.832       4456.5359      8.0834424    
     35000   4726.1563      9.5843844      2946.9132      4351.1872     -2.6422624    
     35100   4203.3736      13.746318      2904.4923      4158.655       9.7755798    
     35200   5000.1159      19.922025      3013.3223      4508.7795      25.612346    
     35300   4934.7415      0.014238095    2856.1912      4312.4486      0.61484177   
     35400   4524.103       8.6820387      2851.2411      4194.9868      4.2982724    
     35500   4849.456       16.832269      2897.1717      4345.0794      1.6611837    
     35600   4967.5799      15.153503      2885.6421      4366.7294      12.207112    
     35700   4556.3676      1.9504842      2818.7787      4165.3142      0.063601722  
     35800   5114.1135      13.588945      2804.0085      4326.7733      8.7100934    
     35900   4623.7527      1.2028366      2955.2482      4320.9214     -12.709158    
     36000   4483.444      -2.3245503      2695.876       4016.6166      8.6670741    
     36100   4998.7175      17.465513      2807.6014      4300.1894      2.6718209    
     36200   4627.3646      2.7499652      2717.5206      4085.8068     -1.325577     
     36300   4816.0973      4.8569221      3001.4701      4427.5583     -0.93426555   
     36400   4261.8352      5.9073592      2926.9227      4190.4985      9.3161774    
     36500   5285.9396      5.2424007      2844.9331      4410.0573      3.2714406    
     36600   4956.8582     -0.53568571     2842.5266      4304.7607      20.062389    
     36700   4135.2645      6.4205513      2973.2638      4200.0018      5.5304417    
     36800   4846.7442      3.6206583      2623.1165      4057.0123      9.8824907    
     36900   5228.6842      4.4641931      2705.6054      4253.0554      8.7154482    
     37000   5180.7245      6.2547993      2747.2762      4282.3638      21.968351    
     37100   5192.2263      20.387996      2943.2752      4495.8902      9.6962047    
     37200   4789.3425      1.9421064      2767.3442      4182.6222      0.73312068   
     37300   4369.0517      15.675844      3033.2519      4338.2357      3.0620822    
     37400   4813.8237      21.68691       2716.468       4158.7152      11.247879    
     37500   4745.0612      14.775119      2846.9831      4262.0267      12.310624    
     37600   4434.3909      17.441604      2761.6614      4087.6926      18.723471    
     37700   4740.3993      20.169345      2722.2659      4141.328       16.772279    
     37800   4658.7442      8.3597776      2617.889       4001.0451      10.372764    
     37900   4793.601       25.476022      2606.5639      4046.6325      0.76569193   
     38000   5308.101       5.489292       2773.948       4345.8589      6.9417959    
     38100   5097.4467      1.9772964      2698.9872      4205.222       0.088699194  
     38200   4294.6233      7.1957678      3092.7097      4367.2496     -1.1891393    
     38300   4376.4404      0.7394463      2516.5919      3808.8197      3.3445205    
     38400   5144.0666      21.637256      2936.7638      4476.4161      27.172326    
     38500   4589.5276      15.455614      2857.3213      4227.1474     -0.3934255    
     38600   4842.6988      19.641187      2891.8396      4340.5622      5.570448     
     38700   4554.3266      10.674281      2944.3429      4298.9999     -0.46426772   
     38800   5095.4654      11.964713      2783.002       4298.6396      7.1154862    
     38900   4423.9439      3.00504        2936.3924      4244.9041      12.65992     
     39000   4315.4899     -5.058611       2900.6069      4169.0502      14.924654    
     39100   5131.4686      6.9437339      2718.1232      4239.3643      0.85980578   
     39200   4477.8272     -1.4154353      2664.9517      3984.9439      8.819868     
     39300   4940.7114      17.552678      2696.1689      4171.7265      11.85276     
     39400   4260.203       20.507946      2884.958       4162.6526      5.5336904    
     39500   5355.5959      6.3391189      2770.4122      4357.1887      11.530235    
     39600   5373.621       17.840379      2724.2972      4327.8942      8.5421573    
     39700   5269.658       5.8588023      2699.2322      4260.1681      8.5724335    
     39800   4519.0513      6.8872393      2704.6167      4045.0769      14.528124    
     39900   3808.8223     -4.8746839      2674.1495      3793.2591     -0.20723395   
     40000   4822.4195      29.853993      2782.3195      4235.2705     -7.2476677    
     40100   4285.9521      6.7553142      2768.692       4040.2326     -0.014784597  
     40200   4765.3708      17.954625      2712.3521      4136.5685      2.6771292    
     40300   4218.6089      23.524238      2746.5455      4014.982       3.2149213    
     40400   5265.4773     -4.9553003      2601.1845      4150.0726      9.7449135    
     40500   4864.8258      9.8785956      2647.8179      4093.3076      4.3486522    
     40600   4849.9987      6.6753765      2782.8127      4220.7237      2.5388349    
     40700   4962.1347      14.355862      2627.4386      4106.1214      4.6470274    
     40800   5028.2399      16.014468      2579.2267      4079.0758      1.7760239    
     40900   4988.4488      1.8274919      2697.3304      4171.2501      2.0768147    
     41000   4855.6367      4.020466       2787.4922      4224.412      -7.7362442    
     41100   4612.2243      2.563006       2607.394       3971.0253      2.8550621    
     41200   4493.9573      4.1802183      2617.1846      3947.5325      19.642958    
     41300   5084.8401     -0.45626735     2788.25        4288.331       4.8987883    
     41400   4953.8592     -0.61606697     2818.8433      4280.1121     -5.3921742    
     41500   5084.5519      12.732543      2855.4233      4368.6081      8.3751046    
     41600   4725.3396      22.84954       2678.5222      4095.8204      8.666708     
     41700   3836.3506      3.7027602      2804.452       3940.2626      16.891898    
     41800   5010.9522      3.8622019      2654.5121      4137.1073     -0.32882784   
     41900   4455.7606      22.845528      2700.9342      4038.6756      12.071147    
     42000   5326.1819      46.684397      2694.7683      4313.21       -0.33250618   
     42100   5157.1971      10.776057      2452.6908      3985.3567      18.369525    
     42200   4510.7487      3.9408047      2719.6924      4054.756       10.72185     
     42300   4383.3422      2.0505091      2525.5052      3821.0808      14.949486    
     42400   4928.3885     -1.0362534      2600.0061      4053.3383      12.211649    
     42500   4548.8409     -2.092924       2593.2534      3933.5243     -4.6336306    
     42600   4902.036      -3.2254433      2710.8476      4154.214       0.97822393   
     42700   4797.9566      14.989436      2480.4181      3911.2855      29.164873    
     42800   4799.8976     -2.8933678      2626.652       4040.2094      1.4534094    
     42900   4743.2763      9.2224342      2755.8348      4164.799       5.934697     
     43000   4835.2193      13.476947      2774.9448      4215.2959     -2.3011245    
     43100   4423.0555      19.668478      2600.3382      3925.2512      11.626051    
     43200   5220.2606      13.495742      2727.9212      4281.9169     -3.4576322    
     43300   4059.9754      28.057444      2483.3519      3709.5089      0.75830012   
     43400   5082.5794      9.5707943      2871.2005      4380.6415      0.0065600902 
     43500   5197.1996      19.885418      2678.0741      4231.6541      3.6511035    
     43600   4834.3017      8.2154224      2867.8492      4302.668      -9.7068259    
     43700   4518.3763      6.8091589      2742.4527      4082.6356     -13.51525     
     43800   4847.5824      16.932516      2707.1832      4154.6382      0.58845883   
     43900   4581.1513     -0.81864278     2575.3839      3926.4639     -2.0306925    
     44000   4333.8584      6.2511712      2706.4267      3991.6003      16.068014    
     44100   4915.9201      12.564588      2796.3602      4259.6138      19.114949    
     44200   4452.698       21.491069      2529.2599      3864.743       6.6999315    
     44300   4381.9369      12.031114      2500.8317      3805.9732      20.777993    
     44400   4702.8161      36.964397      2876.007       4300.7734      6.3025799    
     44500   5206.3502      22.401688      2676.7385      4235.5351     -6.9323034    
     44600   4994.3338      2.4204742      2757.908       4234.1573      2.4766562    
     44700   4608.9248      7.2446167      2667.8154      4035.1546      17.201197    
     44800   4862.9322     -0.35420371     2655.9665      4090.6646     -1.9554922    
     44900   4678.3274      13.965631      2585.8964      3980.4373      3.5916484    
     45000   4681.518       17.37651       2613.0642      4011.9576      11.587667    
     45100   4886.311       10.681005      2727.507       4180.1393      8.5159008    
     45200   4635.9471      27.348072      2767.6936      4163.1106      2.6850024    
     45300   5489.8673      3.1998332      2735.9067      4359.1674      13.628283    
     45400   5259.8406     -1.8576515      2708.6249      4258.9473     -6.5481186    
     45500   4622.7586     -2.9958058      2843.8607      4205.0419     -16.381568    
     45600   4994.2795      0.83633422     2739.8971      4214.5463     -0.15407484   
     45700   5119.8026      14.275251      2607.9507      4133.0807      21.44891     
     45800   4567.4082      15.774054      2635.6412      3999.2583     -4.1756317    
     45900   4528.8863      1.5498608      2600.6917      3938.7168     -12.024365    
     46000   4633.1136      10.608412      2717.7784      4095.6195      2.3280667    
     46100   4841.0971      3.677673       2563.2104      3995.4967      7.6156667    
     46200   4495.314       3.1542686      2741.2247      4070.947       25.403664    
     46300   5489.3557      23.726501      2662.8018      4306.4382      4.1387063    
     46400   4542.2853      17.454615      2688.0242      4045.9081      2.1332166    
     46500   4480.6637      9.9158963      2667.1129      3999.2735     -8.2305783    
     46600   5194.9688      14.003115      2715.6878      4262.7272      13.405926    
     46700   4632.8819      27.541689      3016.0678      4410.7739     -1.9486949    
     46800   4349.3493      7.8994837      2798.7889      4090.1822      12.409703    
     46900   4698.0761     -2.1837658      2617.6494      4001.8688     -15.519777    
     47000   4871.9713      7.8071095      2630.8743      4076.4011      17.061395    
     47100   4389.5405      9.5625921      2738.2924      4043.2092      3.1749739    
     47200   4793.1248      6.194187       2785.1738      4205.82       -2.3585694    
     47300   4636.856      -4.5907048      2710.6893      4074.4357     -0.90224173   
     47400   4822.8635      11.500519      2784.1944      4218.9228     -3.691277     
     47500   4201.8432      27.289037      2807.7982      4075.052       0.68409244   
     47600   4356.0758     -1.4797697      2591.7876      3875.7866     -0.20739807   
     47700   4694.4987      29.909008      2703.3811      4118.6375      5.8989249    
     47800   4306.4146      5.3235632      2571.9995      3848.1468     -4.6981884    
     47900   4708.0794     -0.56139644     2649.1296      4037.9233      3.4878979    
     48000   4194.9402      20.606665      2703.7685      3962.3028     -18.65685     
     48100   4998.7082      19.105015      2655.5368      4149.7616      22.330988    
     48200   4228.1547      11.760466      2645.7881      3905.2778      6.4687464    
     48300   4995.6664      15.692624      2600.6225      4090.5373      19.135163    
     48400   4252.9471      1.7497703      2585.4991      3842.2944     -5.3390305    
     48500   4471.7622      13.852319      2643.8292      3977.2994     -0.2110065    
     48600   4650.1462      20.721459      2656.0502      4049.0307      5.4073539    
     48700   4570.5391      15.909836      2520.8834      3885.5603     -5.3003811    
     48800   4437.6898      6.3247633      2514.4263      3830.3141     -2.4160722    
     48900   4737.5287      12.431068      2460.1249      3870.6016      3.7402312    
     49000   4419.0052      6.3712248      2496.4294      3806.8499      16.382597    
     49100   4100.7188      22.504035      2565.554       3798.1809      16.056964    
     49200   5149.3239      8.5834914      2700.1577      4228.3076     -5.0072175    
     49300   4477.252       16.552039      2601.7137      3939.5037      6.9061633    
     49400   5063.0938      14.699802      2752.147       4260.9667      23.828418    
     49500   4804.5444     -4.1606138      2662.9687      4076.6301      4.9303227    
     49600   4416.3021     -2.7932257      2556.2916      3856.7499      8.7890123    
     49700   4847.7108      2.6988314      2793.9094      4227.1686     -5.4399564    
     49800   4488.5516      6.429787       2714.1197      4045.122       12.795769    
     49900   4698.3008      4.9218469      3080.0509      4471.4422      4.0308307    
     50000   4721.8721      28.886213      3041.3169      4463.6285      4.0973923    
     50100   4625.4335      11.076333      2617.3342      3993.3769      1.6848578    
     50200   4445.1748      0.035215282    2544.2457      3856.0528     -11.068301    
     50300   4649.0906      0.8642367      2636.8975      4009.7093     -4.5293482    
     50400   3486.9536      2.4728795      2937.9038      3969.3774     -4.510462     
     50500   4541.4886      14.315031      2802.7823      4157.2915     -4.2508239    
     50600   4508.649       9.6267322      2691.3259      4031.4558     -6.8335866    
     50700   4831.6707     -1.3689094      2848.3132      4272.7712     -8.4675691    
     50800   4944.0344     -0.42949496     2724.8908      4183.4468      10.152472    
     50900   4914.7773      28.188956      2821.6698      4300.2105      6.3457833    
     51000   4437.4091      17.299169      2572.721       3899.5005      0.45630969   
     51100   4867.5633      20.25322       2779.2133      4235.8853      24.648157    
     51200   4657.0298      22.76006       2657.4765      4054.527       14.614241    
     51300   5217.9632      5.9773391      2661.9045      4207.7038      2.1921734    
     51400   4613.3639      0.81409696     2785.6148      4147.8335      3.9245618    
     51500   4323.7647     -0.69785626     2428.6268      3703.8727      1.486394     
     51600   4524.8351      1.5354943      2613.8949      3950.7101      12.303978    
     51700   4428.2793     -1.5363806      2888.7055      4193.9552      10.43481     
     51800   4894.3869      4.2801848      2642.8583      4091.473       5.8402667    
     51900   4096.4998      4.2867637      2585.9792      3799.1438     -11.130515    
     52000   4335.8823      11.838354      2536.8252      3828.1833      14.915467    
     52100   4739.891       17.53529       2540.7869      3957.0649      19.268602    
     52200   4544.8622     -3.1372774      2724.5468      4062.5993      16.477199    
     52300   4778.191       4.32378        2512.5546      3926.9235      2.6270697    
     52400   4252.7367     -3.8925687      2682.9644      3934.0552     -7.935951     
     52500   3917.4755      8.1150199      2466.0498      3630.2126      8.0450773    
     52600   4617.0098     -2.9631759      2643.3598      4002.8771      2.055274     
     52700   5367.7133      1.5355282      2601.7462      4187.2949     -2.3690342    
     52800   4396.5042      23.5145        2715.7472      4036.6709      7.8576004    
     52900   5162.0095      49.333118      2595.2084      4167.8515      26.627422    
     53000   4853.5129      4.3490809      2729.5034      4166.1251     -2.6789615    
     53100   4396.7237      40.58786       2629.0992      3967.1611     -4.7565777    
     53200   5300.3061      3.1315875      2759.781       4327.034       11.063038    
     53300   4956.9706      4.5231285      2658.6414      4125.9675     -3.0534379    
     53400   4783.487      -1.5682439      2848.2338      4258.2735     -2.7474542    
     53500   4445.0861      7.0948492      2725.6059      4044.4465      4.2550948    
     53600   4482.8299      3.0526604      2695.5027      4021.4393      8.7355869    
     53700   4653.0001      2.8775609      2705.1866      4081.1654      5.7439055    
     53800   5171.3124      0.74295788     2524.8795      4051.6777      11.794356    
     53900   5177.7084      4.5033031      2626.682       4159.128       3.3635296    
