LAMMPS (22 Dec 2022)
# PREREQUISITES:
#
#     You must use moltemplate.sh to create 3 files:
#        system.data  system.in.init  system.in.settings
#     (Follow the instructions in README_setup.sh,
#      or run the file as a script using ./README_setup.sh)

# ------------------------------- Initialization Section --------------------

units real
atom_style full
pair_style lj/class2/coul/long 10.0 10.0
bond_style class2
angle_style class2
dihedral_style class2
improper_style class2
kspace_style pppm/cg 0.001

pair_modify     mix sixthpower tail yes
special_bonds   lj/coul 0 0 1


# ------------------------------- Atom Definition Section -------------------

read_data       "reacted_lmp.data"
Reading data file ...
  orthogonal box = (5.6756746 5.6756746 5.6756746) to (45.16714 45.16714 45.16714)
  2 by 3 by 4 MPI processor grid
  reading atoms ...
  5001 atoms
  reading velocities ...
  5001 velocities
  scanning bonds ...
  4 = max bonds/atom
  scanning angles ...
  6 = max angles/atom
  scanning dihedrals ...
  14 = max dihedrals/atom
  scanning impropers ...
  4 = max impropers/atom
  reading bonds ...
  5226 bonds
  reading angles ...
  9006 angles
  reading dihedrals ...
  12522 dihedrals
  reading impropers ...
  4266 impropers
Finding 1-2 1-3 1-4 neighbors ...
  special bond factors lj:    0        0        1       
  special bond factors coul:  0        0        1       
     4 = max # of 1-2 neighbors
     7 = max # of 1-3 neighbors
    11 = max # of special neighbors
  special bonds CPU = 0.004 seconds
  read_data CPU = 0.383 seconds

include calc.pram

# Masses

mass		1    12.01115  # c
mass		2    12.01115  # c1
mass		3    12.01115  # c3h
mass		4    12.01115  # cp
mass		5     1.00797  # h
mass		6     1.00797  # hc
mass		7    15.99940  # o3e
mass		8    15.99940  # oc
mass		9    15.99940  # oh

# Potentials

pair_coeff	 1  1    0.05400    4.01000  # c,c
pair_coeff	 2  2    0.05400    4.01000  # c1,c1
pair_coeff	 3  3    0.05400    4.01000  # c3h,c3h
pair_coeff	 4  4    0.06400    4.01000  # cp,cp
pair_coeff	 5  5    0.02000    2.99500  # h,h
pair_coeff	 6  6    0.02000    2.99500  # hc,hc
pair_coeff	 7  7    0.24000    3.53500  # o3e,o3e
pair_coeff	 8  8    0.24000    3.53500  # oc,oc
pair_coeff	 9  9    0.24000    3.53500  # oh,oh

# Bond Coeffs

bond_coeff	 1    1.53000  299.67000 -501.77000  679.81000  # c,c
bond_coeff	 2    1.53000  299.67000 -501.77000  679.81000  # c,c1
bond_coeff	 3    1.53000  299.67000 -501.77000  679.81000  # c,c3h
bond_coeff	 4    1.10100  345.00000 -691.89000  844.60000  # c,hc
bond_coeff	 5    1.42000  400.39540 -835.19510 1313.01420  # c,o3e
bond_coeff	 6    1.42000  400.39540 -835.19510 1313.01420  # c,oc
bond_coeff	 7    1.42000  400.39540 -835.19510 1313.01420  # c,oh
bond_coeff	 8    1.10100  345.00000 -691.89000  844.60000  # c1,hc
bond_coeff	 9    1.42000  400.39540 -835.19510 1313.01420  # c1,oc
bond_coeff	10    1.10100  345.00000 -691.89000  844.60000  # c3h,hc
bond_coeff	11    1.42000  400.39540 -835.19510 1313.01420  # c3h,o3e
bond_coeff	12    1.41700  470.83610 -627.61790 1327.63450  # cp,cp
bond_coeff	13    1.09820  372.82510 -803.45260  894.31730  # cp,hc
bond_coeff	14    1.37680  428.87980 -738.23510 1114.96550  # cp,oc
bond_coeff	15    0.96000  493.84800    0.00000    0.00000  # h,oh

# Angle Coeffs

angle_coeff	 1  112.67000   39.51600   -7.44300   -9.55830  # c,c,c
angle_coeff	 2  110.77000   41.45300  -10.60400    5.12900  # c,c,hc
angle_coeff	 3  111.27000   54.53810   -8.36420  -13.08380  # c,c,oc
angle_coeff	 4  112.67000   39.51600   -7.44300   -9.55830  # c,c1,c
angle_coeff	 5  110.77000   41.45300  -10.60400    5.12900  # c,c1,hc
angle_coeff	 6  111.27000   54.53810   -8.36420  -13.08380  # c,c1,oc
angle_coeff	 7  112.67000   39.51600   -7.44300   -9.55830  # c,c3h,c
angle_coeff	 8  110.77000   41.45300  -10.60400    5.12900  # c,c3h,hc
angle_coeff	 9  111.27000   54.53810   -8.36420  -13.08380  # c,c3h,o3e
angle_coeff	10  104.50000   35.74540  -10.00670   -6.27290  # c,o3e,c3h
angle_coeff	11  104.50000   35.74540  -10.00670   -6.27290  # c,oc,c1
angle_coeff	12  102.96950   38.97390   -6.25950   -8.17100  # c,oc,cp
angle_coeff	13  109.00000   58.50000    0.00000    0.00000  # c,oh,h
angle_coeff	14  110.77000   41.45300  -10.60400    5.12900  # c1,c,hc
angle_coeff	15  111.27000   54.53810   -8.36420  -13.08380  # c1,c,oc
angle_coeff	16  111.27000   54.53810   -8.36420  -13.08380  # c1,c,oh
angle_coeff	17  110.77000   41.45300  -10.60400    5.12900  # c3h,c,hc
angle_coeff	18  111.27000   54.53810   -8.36420  -13.08380  # c3h,c,o3e
angle_coeff	19  111.27000   54.53810   -8.36420  -13.08380  # c3h,c,oc
angle_coeff	20  118.90000   61.02260  -34.99310    0.00000  # cp,cp,cp
angle_coeff	21  117.94000   35.15580  -12.46820    0.00000  # cp,cp,hc
angle_coeff	22  123.42000   73.67810  -21.67870    0.00000  # cp,cp,oc
angle_coeff	23  107.66000   39.64100  -12.92100   -2.43180  # hc,c,hc
angle_coeff	24  108.72800   58.54460  -10.80880  -12.40060  # hc,c,o3e
angle_coeff	25  108.72800   58.54460  -10.80880  -12.40060  # hc,c,oc
angle_coeff	26  108.72800   58.54460  -10.80880  -12.40060  # hc,c,oh
angle_coeff	27  108.72800   58.54460  -10.80880  -12.40060  # hc,c1,oc
angle_coeff	28  108.72800   58.54460  -10.80880  -12.40060  # hc,c3h,o3e

# BondBond Coeffs

angle_coeff	 1 bb    0.00000    1.53000    1.53000  # c,c,c
angle_coeff	 2 bb    3.38720    1.53000    1.10100  # c,c,hc
angle_coeff	 3 bb   11.43180    1.53000    1.42000  # c,c,oc
angle_coeff	 4 bb    0.00000    1.53000    1.53000  # c,c1,c
angle_coeff	 5 bb    3.38720    1.53000    1.10100  # c,c1,hc
angle_coeff	 6 bb   11.43180    1.53000    1.42000  # c,c1,oc
angle_coeff	 7 bb    0.00000    1.53000    1.53000  # c,c3h,c
angle_coeff	 8 bb    3.38720    1.53000    1.10100  # c,c3h,hc
angle_coeff	 9 bb   11.43180    1.53000    1.42000  # c,c3h,o3e
angle_coeff	10 bb   -7.11310    1.42000    1.42000  # c,o3e,c3h
angle_coeff	11 bb   -7.11310    1.42000    1.42000  # c,oc,c1
angle_coeff	12 bb    0.00000    1.42000    1.37680  # c,oc,cp
angle_coeff	13 bb    0.00000    1.42000    0.96000  # c,oh,h
angle_coeff	14 bb    3.38720    1.53000    1.10100  # c1,c,hc
angle_coeff	15 bb   11.43180    1.53000    1.42000  # c1,c,oc
angle_coeff	16 bb   11.43180    1.53000    1.42000  # c1,c,oh
angle_coeff	17 bb    3.38720    1.53000    1.10100  # c3h,c,hc
angle_coeff	18 bb   11.43180    1.53000    1.42000  # c3h,c,o3e
angle_coeff	19 bb   11.43180    1.53000    1.42000  # c3h,c,oc
angle_coeff	20 bb   68.28560    1.41700    1.41700  # cp,cp,cp
angle_coeff	21 bb    1.07950    1.41700    1.09820  # cp,cp,hc
angle_coeff	22 bb   48.47540    1.41700    1.37680  # cp,cp,oc
angle_coeff	23 bb    5.33160    1.10100    1.10100  # hc,c,hc
angle_coeff	24 bb   23.19790    1.10100    1.42000  # hc,c,o3e
angle_coeff	25 bb   23.19790    1.10100    1.42000  # hc,c,oc
angle_coeff	26 bb   23.19790    1.10100    1.42000  # hc,c,oh
angle_coeff	27 bb   23.19790    1.10100    1.42000  # hc,c1,oc
angle_coeff	28 bb   23.19790    1.10100    1.42000  # hc,c3h,o3e

# BondAngle Coeffs

angle_coeff	 1 ba    8.01600    8.01600    1.53000    1.53000  # c,c,c
angle_coeff	 2 ba   20.75400   11.42100    1.53000    1.10100  # c,c,hc
angle_coeff	 3 ba   20.40330    2.68680    1.53000    1.42000  # c,c,oc
angle_coeff	 4 ba    8.01600    8.01600    1.53000    1.53000  # c,c1,c
angle_coeff	 5 ba   20.75400   11.42100    1.53000    1.10100  # c,c1,hc
angle_coeff	 6 ba   20.40330    2.68680    1.53000    1.42000  # c,c1,oc
angle_coeff	 7 ba    8.01600    8.01600    1.53000    1.53000  # c,c3h,c
angle_coeff	 8 ba   20.75400   11.42100    1.53000    1.10100  # c,c3h,hc
angle_coeff	 9 ba    2.68680   20.40330    1.53000    1.42000  # c,c3h,o3e
angle_coeff	10 ba   -2.81120   -2.81120    1.42000    1.42000  # c,o3e,c3h
angle_coeff	11 ba   -2.81120   -2.81120    1.42000    1.42000  # c,oc,c1
angle_coeff	12 ba    0.00000    0.00000    1.42000    1.37680  # c,oc,cp
angle_coeff	13 ba    0.00000    0.00000    1.42000    0.96000  # c,oh,h
angle_coeff	14 ba   11.42100   20.75400    1.53000    1.10100  # c1,c,hc
angle_coeff	15 ba   20.40330    2.68680    1.53000    1.42000  # c1,c,oc
angle_coeff	16 ba   20.40330    2.68680    1.53000    1.42000  # c1,c,oh
angle_coeff	17 ba   11.42100   20.75400    1.53000    1.10100  # c3h,c,hc
angle_coeff	18 ba    2.68680   20.40330    1.53000    1.42000  # c3h,c,o3e
angle_coeff	19 ba   20.40330    2.68680    1.53000    1.42000  # c3h,c,oc
angle_coeff	20 ba   28.87080   28.87080    1.41700    1.41700  # cp,cp,cp
angle_coeff	21 ba   20.00330   24.21830    1.41700    1.09820  # cp,cp,hc
angle_coeff	22 ba   58.47900  107.68060    1.41700    1.37680  # cp,cp,oc
angle_coeff	23 ba   18.10300   18.10300    1.10100    1.10100  # hc,c,hc
angle_coeff	24 ba    4.61890   55.32700    1.10100    1.42000  # hc,c,o3e
angle_coeff	25 ba   55.32700    4.61890    1.10100    1.42000  # hc,c,oc
angle_coeff	26 ba    4.61890   55.32700    1.10100    1.42000  # hc,c,oh
angle_coeff	27 ba   55.32700    4.61890    1.10100    1.42000  # hc,c1,oc
angle_coeff	28 ba    4.61890   55.32700    1.10100    1.42000  # hc,c3h,o3e

# Dihedral Coeffs

dihedral_coeff	 1    0.00000    0.00000    0.03160    0.00000   -0.16810    0.00000  # c,c,c,hc
dihedral_coeff	 2    0.71370    0.00000    0.26600    0.00000   -0.25450    0.00000  # c,c,c,oc
dihedral_coeff	 3   -0.52030    0.00000   -0.30280    0.00000   -0.34500    0.00000  # c,c,oc,c1
dihedral_coeff	 4    0.00000    0.00000    0.00000    0.00000    0.13000  180.00000  # c,c,oc,cp
dihedral_coeff	 5    0.00000    0.00000    0.03160    0.00000   -0.16810    0.00000  # c,c1,c,hc
dihedral_coeff	 6    0.71370    0.00000    0.26600    0.00000   -0.25450    0.00000  # c,c1,c,oc
dihedral_coeff	 7    0.71370    0.00000    0.26600    0.00000   -0.25450    0.00000  # c,c1,c,oh
dihedral_coeff	 8   -0.52030    0.00000   -0.30280    0.00000   -0.34500    0.00000  # c,c1,oc,c
dihedral_coeff	 9    0.00000    0.00000    0.03160    0.00000   -0.16810    0.00000  # c,c3h,c,hc
dihedral_coeff	10    0.71370    0.00000    0.26600    0.00000   -0.25450    0.00000  # c,c3h,c,o3e
dihedral_coeff	11    0.71370    0.00000    0.26600    0.00000   -0.25450    0.00000  # c,c3h,c,oc
dihedral_coeff	12   -0.52030    0.00000   -0.30280    0.00000   -0.34500    0.00000  # c,c3h,o3e,c
dihedral_coeff	13    0.53020    0.00000    0.00000    0.00000   -0.39660    0.00000  # c,o3e,c3h,hc
dihedral_coeff	14    0.53020    0.00000    0.00000    0.00000   -0.39660    0.00000  # c,oc,c1,hc
dihedral_coeff	15    0.00000    0.00000    1.50000    0.00000    0.00000    0.00000  # c,oc,cp,cp
dihedral_coeff	16   -0.52030    0.00000   -0.30280    0.00000   -0.34500    0.00000  # c1,c,oc,c1
dihedral_coeff	17    0.00000    0.00000    0.00000    0.00000    0.13000  180.00000  # c1,c,oc,cp
dihedral_coeff	18    0.00000    0.00000    0.00000    0.00000    0.13000  180.00000  # c1,c,oh,h
dihedral_coeff	19    0.53020    0.00000    0.00000    0.00000   -0.39660    0.00000  # c1,oc,c,hc
dihedral_coeff	20    0.00000    0.00000    0.00000    0.00000    0.13000  180.00000  # c3h,c,oc,cp
dihedral_coeff	21    0.53020    0.00000    0.00000    0.00000   -0.39660    0.00000  # c3h,o3e,c,hc
dihedral_coeff	22    8.36670    0.00000    1.19320    0.00000    0.00000    0.00000  # cp,cp,cp,cp
dihedral_coeff	23    0.00000    0.00000    3.96610    0.00000    0.00000    0.00000  # cp,cp,cp,hc
dihedral_coeff	24    0.00000    0.00000    4.84980    0.00000    0.00000    0.00000  # cp,cp,cp,oc
dihedral_coeff	25    0.95130    0.00000    0.11550    0.00000    0.07200    0.00000  # cp,oc,c,hc
dihedral_coeff	26    0.00000    0.00000    0.00000    0.00000    0.13000  180.00000  # h,oh,c,hc
dihedral_coeff	27   -0.14320    0.00000    0.06170    0.00000   -0.10830    0.00000  # hc,c,c,hc
dihedral_coeff	28   -0.14350    0.00000    0.25300    0.00000   -0.09050    0.00000  # hc,c,c,oc
dihedral_coeff	29   -0.14320    0.00000    0.06170    0.00000   -0.10830    0.00000  # hc,c,c1,hc
dihedral_coeff	30   -0.14350    0.00000    0.25300    0.00000   -0.09050    0.00000  # hc,c,c1,oc
dihedral_coeff	31   -0.14320    0.00000    0.06170    0.00000   -0.10830    0.00000  # hc,c,c3h,hc
dihedral_coeff	32   -0.14350    0.00000    0.25300    0.00000   -0.09050    0.00000  # hc,c,c3h,o3e
dihedral_coeff	33   -0.14350    0.00000    0.25300    0.00000   -0.09050    0.00000  # hc,c1,c,oc
dihedral_coeff	34   -0.14350    0.00000    0.25300    0.00000   -0.09050    0.00000  # hc,c1,c,oh
dihedral_coeff	35   -0.14350    0.00000    0.25300    0.00000   -0.09050    0.00000  # hc,c3h,c,o3e
dihedral_coeff	36   -0.14350    0.00000    0.25300    0.00000   -0.09050    0.00000  # hc,c3h,c,oc
dihedral_coeff	37    0.00000    0.00000    1.87690    0.00000    0.00000    0.00000  # hc,cp,cp,hc
dihedral_coeff	38    0.00000    0.00000    1.72340    0.00000    0.00000    0.00000  # hc,cp,cp,oc
dihedral_coeff	39   -0.18200    0.00000   -0.10840    0.00000   -0.70470    0.00000  # o3e,c3h,c,oc
dihedral_coeff	40   -0.18200    0.00000   -0.10840    0.00000   -0.70470    0.00000  # oc,c,c1,oc
dihedral_coeff	41   -0.18200    0.00000   -0.10840    0.00000   -0.70470    0.00000  # oc,c1,c,oh

# MiddleBondTorsion Coeffs

dihedral_coeff	 1 mbt  -14.87900   -3.65810   -0.31380    1.53000  # c,c,c,hc
dihedral_coeff	 2 mbt  -21.88420   -7.67640   -0.68680    1.53000  # c,c,c,oc
dihedral_coeff	 3 mbt   -5.92880   -2.70070   -0.31750    1.42000  # c,c,oc,c1
dihedral_coeff	 4 mbt    0.00000    0.00000    0.00000    1.42000  # c,c,oc,cp
dihedral_coeff	 5 mbt  -14.87900   -3.65810   -0.31380    1.53000  # c,c1,c,hc
dihedral_coeff	 6 mbt  -21.88420   -7.67640   -0.68680    1.53000  # c,c1,c,oc
dihedral_coeff	 7 mbt  -21.88420   -7.67640   -0.68680    1.53000  # c,c1,c,oh
dihedral_coeff	 8 mbt   -5.92880   -2.70070   -0.31750    1.42000  # c,c1,oc,c
dihedral_coeff	 9 mbt  -14.87900   -3.65810   -0.31380    1.53000  # c,c3h,c,hc
dihedral_coeff	10 mbt  -21.88420   -7.67640   -0.68680    1.53000  # c,c3h,c,o3e
dihedral_coeff	11 mbt  -21.88420   -7.67640   -0.68680    1.53000  # c,c3h,c,oc
dihedral_coeff	12 mbt   -5.92880   -2.70070   -0.31750    1.42000  # c,c3h,o3e,c
dihedral_coeff	13 mbt   -6.80070   -4.65460   -1.41010    1.42000  # c,o3e,c3h,hc
dihedral_coeff	14 mbt   -6.80070   -4.65460   -1.41010    1.42000  # c,oc,c1,hc
dihedral_coeff	15 mbt    0.00000    0.00000    0.00000    1.37680  # c,oc,cp,cp
dihedral_coeff	16 mbt   -5.92880   -2.70070   -0.31750    1.42000  # c1,c,oc,c1
dihedral_coeff	17 mbt    0.00000    0.00000    0.00000    1.42000  # c1,c,oc,cp
dihedral_coeff	18 mbt    0.00000    0.00000    0.00000    1.42000  # c1,c,oh,h
dihedral_coeff	19 mbt   -6.80070   -4.65460   -1.41010    1.42000  # c1,oc,c,hc
dihedral_coeff	20 mbt    0.00000    0.00000    0.00000    1.42000  # c3h,c,oc,cp
dihedral_coeff	21 mbt   -6.80070   -4.65460   -1.41010    1.42000  # c3h,o3e,c,hc
dihedral_coeff	22 mbt   27.59890   -2.31200    0.00000    1.41700  # cp,cp,cp,cp
dihedral_coeff	23 mbt    0.00000   -1.15210    0.00000    1.41700  # cp,cp,cp,hc
dihedral_coeff	24 mbt    0.00000    4.82550    0.00000    1.41700  # cp,cp,cp,oc
dihedral_coeff	25 mbt    0.00000    0.00000    0.00000    1.42000  # cp,oc,c,hc
dihedral_coeff	26 mbt    0.00000    0.00000    0.00000    1.42000  # h,oh,c,hc
dihedral_coeff	27 mbt  -14.26100   -0.53220   -0.48640    1.53000  # hc,c,c,hc
dihedral_coeff	28 mbt  -16.79750   -1.22960   -0.27500    1.53000  # hc,c,c,oc
dihedral_coeff	29 mbt  -14.26100   -0.53220   -0.48640    1.53000  # hc,c,c1,hc
dihedral_coeff	30 mbt  -16.79750   -1.22960   -0.27500    1.53000  # hc,c,c1,oc
dihedral_coeff	31 mbt  -14.26100   -0.53220   -0.48640    1.53000  # hc,c,c3h,hc
dihedral_coeff	32 mbt  -16.79750   -1.22960   -0.27500    1.53000  # hc,c,c3h,o3e
dihedral_coeff	33 mbt  -16.79750   -1.22960   -0.27500    1.53000  # hc,c1,c,oc
dihedral_coeff	34 mbt  -16.79750   -1.22960   -0.27500    1.53000  # hc,c1,c,oh
dihedral_coeff	35 mbt  -16.79750   -1.22960   -0.27500    1.53000  # hc,c3h,c,o3e
dihedral_coeff	36 mbt  -16.79750   -1.22960   -0.27500    1.53000  # hc,c3h,c,oc
dihedral_coeff	37 mbt    0.00000    4.82280    0.00000    1.41700  # hc,cp,cp,hc
dihedral_coeff	38 mbt    0.00000    5.54320    0.00000    1.41700  # hc,cp,cp,oc
dihedral_coeff	39 mbt  -17.25850   -3.61570   -0.83640    1.53000  # o3e,c3h,c,oc
dihedral_coeff	40 mbt  -17.25850   -3.61570   -0.83640    1.53000  # oc,c,c1,oc
dihedral_coeff	41 mbt  -17.25850   -3.61570   -0.83640    1.53000  # oc,c1,c,oh

# EndBondTorsion Coeffs

dihedral_coeff	 1 ebt    0.24860    0.24220   -0.09250    0.08140    0.05910    0.22190    1.53000    1.10100  # c,c,c,hc
dihedral_coeff	 2 ebt    1.15380    0.84090   -0.91380   -0.31900    0.44110   -0.71740    1.53000    1.42000  # c,c,c,oc
dihedral_coeff	 3 ebt   -0.24560    1.05170   -0.77950    0.47410    1.26350    0.55760    1.53000    1.42000  # c,c,oc,c1
dihedral_coeff	 4 ebt    0.00000    0.00000    0.00000    0.00000    0.00000    0.00000    1.53000    1.37680  # c,c,oc,cp
dihedral_coeff	 5 ebt    0.24860    0.24220   -0.09250    0.08140    0.05910    0.22190    1.53000    1.10100  # c,c1,c,hc
dihedral_coeff	 6 ebt    1.15380    0.84090   -0.91380   -0.31900    0.44110   -0.71740    1.53000    1.42000  # c,c1,c,oc
dihedral_coeff	 7 ebt   -0.31900    0.44110   -0.71740    1.15380    0.84090   -0.91380    1.53000    1.42000  # c,c1,c,oh
dihedral_coeff	 8 ebt    0.47410    1.26350    0.55760   -0.24560    1.05170   -0.77950    1.53000    1.42000  # c,c1,oc,c
dihedral_coeff	 9 ebt    0.24860    0.24220   -0.09250    0.08140    0.05910    0.22190    1.53000    1.10100  # c,c3h,c,hc
dihedral_coeff	10 ebt   -0.31900    0.44110   -0.71740    1.15380    0.84090   -0.91380    1.53000    1.42000  # c,c3h,c,o3e
dihedral_coeff	11 ebt    1.15380    0.84090   -0.91380   -0.31900    0.44110   -0.71740    1.53000    1.42000  # c,c3h,c,oc
dihedral_coeff	12 ebt   -0.24560    1.05170   -0.77950    0.47410    1.26350    0.55760    1.53000    1.42000  # c,c3h,o3e,c
dihedral_coeff	13 ebt   -0.16200    0.15640   -1.14080   -0.60540    1.33390    0.96480    1.42000    1.10100  # c,o3e,c3h,hc
dihedral_coeff	14 ebt   -0.16200    0.15640   -1.14080   -0.60540    1.33390    0.96480    1.42000    1.10100  # c,oc,c1,hc
dihedral_coeff	15 ebt    0.00000    0.00000    0.00000    0.00000    0.00000    0.00000    1.42000    1.41700  # c,oc,cp,cp
dihedral_coeff	16 ebt    0.47410    1.26350    0.55760   -0.24560    1.05170   -0.77950    1.53000    1.42000  # c1,c,oc,c1
dihedral_coeff	17 ebt    0.00000    0.00000    0.00000    0.00000    0.00000    0.00000    1.53000    1.37680  # c1,c,oc,cp
dihedral_coeff	18 ebt    0.00000    0.00000    0.00000    0.00000    0.00000    0.00000    1.53000    0.96000  # c1,c,oh,h
dihedral_coeff	19 ebt   -0.60540    1.33390    0.96480   -0.16200    0.15640   -1.14080    1.42000    1.10100  # c1,oc,c,hc
dihedral_coeff	20 ebt    0.00000    0.00000    0.00000    0.00000    0.00000    0.00000    1.53000    1.37680  # c3h,c,oc,cp
dihedral_coeff	21 ebt   -0.60540    1.33390    0.96480   -0.16200    0.15640   -1.14080    1.42000    1.10100  # c3h,o3e,c,hc
dihedral_coeff	22 ebt   -0.11850    6.32040    0.00000   -0.11850    6.32040    0.00000    1.41700    1.41700  # cp,cp,cp,cp
dihedral_coeff	23 ebt    0.00000   -6.89580    0.00000    0.00000   -0.46690    0.00000    1.41700    1.09820  # cp,cp,cp,hc
dihedral_coeff	24 ebt    0.00000    0.26550    0.00000    0.00000    4.89050    0.00000    1.41700    1.37680  # cp,cp,cp,oc
dihedral_coeff	25 ebt    0.00000    0.00000    0.00000    0.00000    0.00000    0.00000    1.37680    1.10100  # cp,oc,c,hc
dihedral_coeff	26 ebt    0.00000    0.00000    0.00000    0.00000    0.00000    0.00000    0.96000    1.10100  # h,oh,c,hc
dihedral_coeff	27 ebt    0.21300    0.31200    0.07770    0.21300    0.31200    0.07770    1.10100    1.10100  # hc,c,c,hc
dihedral_coeff	28 ebt    0.59030    0.66690    0.85840    0.96810    0.95510    0.04360    1.10100    1.42000  # hc,c,c,oc
dihedral_coeff	29 ebt    0.21300    0.31200    0.07770    0.21300    0.31200    0.07770    1.10100    1.10100  # hc,c,c1,hc
dihedral_coeff	30 ebt    0.59030    0.66690    0.85840    0.96810    0.95510    0.04360    1.10100    1.42000  # hc,c,c1,oc
dihedral_coeff	31 ebt    0.21300    0.31200    0.07770    0.21300    0.31200    0.07770    1.10100    1.10100  # hc,c,c3h,hc
dihedral_coeff	32 ebt    0.96810    0.95510    0.04360    0.59030    0.66690    0.85840    1.10100    1.42000  # hc,c,c3h,o3e
dihedral_coeff	33 ebt    0.59030    0.66690    0.85840    0.96810    0.95510    0.04360    1.10100    1.42000  # hc,c1,c,oc
dihedral_coeff	34 ebt    0.96810    0.95510    0.04360    0.59030    0.66690    0.85840    1.10100    1.42000  # hc,c1,c,oh
dihedral_coeff	35 ebt    0.96810    0.95510    0.04360    0.59030    0.66690    0.85840    1.10100    1.42000  # hc,c3h,c,o3e
dihedral_coeff	36 ebt    0.59030    0.66690    0.85840    0.96810    0.95510    0.04360    1.10100    1.42000  # hc,c3h,c,oc
dihedral_coeff	37 ebt    0.00000   -0.68900    0.00000    0.00000   -0.68900    0.00000    1.09820    1.09820  # hc,cp,cp,hc
dihedral_coeff	38 ebt    0.00000    4.26410    0.00000    0.00000   -1.58670    0.00000    1.09820    1.37680  # hc,cp,cp,oc
dihedral_coeff	39 ebt    1.01650    0.75530   -0.46090    1.01650    0.75530   -0.46090    1.42000    1.42000  # o3e,c3h,c,oc
dihedral_coeff	40 ebt    1.01650    0.75530   -0.46090    1.01650    0.75530   -0.46090    1.42000    1.42000  # oc,c,c1,oc
dihedral_coeff	41 ebt    1.01650    0.75530   -0.46090    1.01650    0.75530   -0.46090    1.42000    1.42000  # oc,c1,c,oh

# AngleTorsion Coeffs

dihedral_coeff	 1 at   -0.24540    0.00000   -0.11360    0.31130    0.45160   -0.19880  112.67000  110.77000  # c,c,c,hc
dihedral_coeff	 2 at    0.96720   -0.75660   -1.23310    0.56230   -0.30410   -0.40150  112.67000  111.27000  # c,c,c,oc
dihedral_coeff	 3 at   -2.74660    1.48770   -0.89550    0.56760    0.94500    0.07030  111.27000  104.50000  # c,c,oc,c1
dihedral_coeff	 4 at    0.00000    0.00000    0.00000    0.00000    0.00000    0.00000  111.27000  102.96950  # c,c,oc,cp
dihedral_coeff	 5 at   -0.24540    0.00000   -0.11360    0.31130    0.45160   -0.19880  112.67000  110.77000  # c,c1,c,hc
dihedral_coeff	 6 at    0.96720   -0.75660   -1.23310    0.56230   -0.30410   -0.40150  112.67000  111.27000  # c,c1,c,oc
dihedral_coeff	 7 at    0.56230   -0.30410   -0.40150    0.96720   -0.75660   -1.23310  112.67000  111.27000  # c,c1,c,oh
dihedral_coeff	 8 at    0.56760    0.94500    0.07030   -2.74660    1.48770   -0.89550  111.27000  104.50000  # c,c1,oc,c
dihedral_coeff	 9 at   -0.24540    0.00000   -0.11360    0.31130    0.45160   -0.19880  112.67000  110.77000  # c,c3h,c,hc
dihedral_coeff	10 at    0.56230   -0.30410   -0.40150    0.96720   -0.75660   -1.23310  112.67000  111.27000  # c,c3h,c,o3e
dihedral_coeff	11 at    0.96720   -0.75660   -1.23310    0.56230   -0.30410   -0.40150  112.67000  111.27000  # c,c3h,c,oc
dihedral_coeff	12 at   -2.74660    1.48770   -0.89550    0.56760    0.94500    0.07030  111.27000  104.50000  # c,c3h,o3e,c
dihedral_coeff	13 at   -0.77770    0.43400   -0.66530   -1.82340    1.63930    0.51440  104.50000  108.72800  # c,o3e,c3h,hc
dihedral_coeff	14 at   -0.77770    0.43400   -0.66530   -1.82340    1.63930    0.51440  104.50000  108.72800  # c,oc,c1,hc
dihedral_coeff	15 at    0.00000    0.00000    0.00000    0.00000    0.00000    0.00000  102.96950  123.42000  # c,oc,cp,cp
dihedral_coeff	16 at    0.56760    0.94500    0.07030   -2.74660    1.48770   -0.89550  111.27000  104.50000  # c1,c,oc,c1
dihedral_coeff	17 at    0.00000    0.00000    0.00000    0.00000    0.00000    0.00000  111.27000  102.96950  # c1,c,oc,cp
dihedral_coeff	18 at    0.00000    0.00000    0.00000    0.00000    0.00000    0.00000  111.27000  109.00000  # c1,c,oh,h
dihedral_coeff	19 at   -1.82340    1.63930    0.51440   -0.77770    0.43400   -0.66530  104.50000  108.72800  # c1,oc,c,hc
dihedral_coeff	20 at    0.00000    0.00000    0.00000    0.00000    0.00000    0.00000  111.27000  102.96950  # c3h,c,oc,cp
dihedral_coeff	21 at   -1.82340    1.63930    0.51440   -0.77770    0.43400   -0.66530  104.50000  108.72800  # c3h,o3e,c,hc
dihedral_coeff	22 at    1.97670    1.02390    0.00000    1.97670    1.02390    0.00000  118.90000  118.90000  # cp,cp,cp,cp
dihedral_coeff	23 at    0.00000    2.50140    0.00000    0.00000    2.71470    0.00000  118.90000  117.94000  # cp,cp,cp,hc
dihedral_coeff	24 at    0.00000   10.01550    0.00000    0.00000    1.74040    0.00000  118.90000  123.42000  # cp,cp,cp,oc
dihedral_coeff	25 at    0.00000    0.00000    0.00000    0.00000    0.00000    0.00000  102.96950  108.72800  # cp,oc,c,hc
dihedral_coeff	26 at    0.00000    0.00000    0.00000    0.00000    0.00000    0.00000  109.00000  108.72800  # h,oh,c,hc
dihedral_coeff	27 at   -0.80850    0.55690   -0.24660   -0.80850    0.55690   -0.24660  110.77000  110.77000  # hc,c,c,hc
dihedral_coeff	28 at   -0.18920    0.49180    0.72730    2.36680    2.49200   -1.01220  110.77000  111.27000  # hc,c,c,oc
dihedral_coeff	29 at   -0.80850    0.55690   -0.24660   -0.80850    0.55690   -0.24660  110.77000  110.77000  # hc,c,c1,hc
dihedral_coeff	30 at   -0.18920    0.49180    0.72730    2.36680    2.49200   -1.01220  110.77000  111.27000  # hc,c,c1,oc
dihedral_coeff	31 at   -0.80850    0.55690   -0.24660   -0.80850    0.55690   -0.24660  110.77000  110.77000  # hc,c,c3h,hc
dihedral_coeff	32 at    2.36680    2.49200   -1.01220   -0.18920    0.49180    0.72730  110.77000  111.27000  # hc,c,c3h,o3e
dihedral_coeff	33 at   -0.18920    0.49180    0.72730    2.36680    2.49200   -1.01220  110.77000  111.27000  # hc,c1,c,oc
dihedral_coeff	34 at    2.36680    2.49200   -1.01220   -0.18920    0.49180    0.72730  110.77000  111.27000  # hc,c1,c,oh
dihedral_coeff	35 at    2.36680    2.49200   -1.01220   -0.18920    0.49180    0.72730  110.77000  111.27000  # hc,c3h,c,o3e
dihedral_coeff	36 at   -0.18920    0.49180    0.72730    2.36680    2.49200   -1.01220  110.77000  111.27000  # hc,c3h,c,oc
dihedral_coeff	37 at    0.00000    2.45010    0.00000    0.00000    2.45010    0.00000  117.94000  117.94000  # hc,cp,cp,hc
dihedral_coeff	38 at    0.00000    2.57060    0.00000    0.00000    1.87290    0.00000  117.94000  123.42000  # hc,cp,cp,oc
dihedral_coeff	39 at    0.55110    0.97370   -0.66730    0.55110    0.97370   -0.66730  111.27000  111.27000  # o3e,c3h,c,oc
dihedral_coeff	40 at    0.55110    0.97370   -0.66730    0.55110    0.97370   -0.66730  111.27000  111.27000  # oc,c,c1,oc
dihedral_coeff	41 at    0.55110    0.97370   -0.66730    0.55110    0.97370   -0.66730  111.27000  111.27000  # oc,c1,c,oh

# AngleAngleTorsion Coeffs

dihedral_coeff	 1 aat  -16.16400  112.67000  110.77000  # c,c,c,hc
dihedral_coeff	 2 aat  -29.04200  112.67000  111.27000  # c,c,c,oc
dihedral_coeff	 3 aat  -19.00590  111.27000  104.50000  # c,c,oc,c1
dihedral_coeff	 4 aat    0.00000  111.27000  102.96950  # c,c,oc,cp
dihedral_coeff	 5 aat  -16.16400  112.67000  110.77000  # c,c1,c,hc
dihedral_coeff	 6 aat  -29.04200  112.67000  111.27000  # c,c1,c,oc
dihedral_coeff	 7 aat  -29.04200  112.67000  111.27000  # c,c1,c,oh
dihedral_coeff	 8 aat  -19.00590  111.27000  104.50000  # c,c1,oc,c
dihedral_coeff	 9 aat  -16.16400  112.67000  110.77000  # c,c3h,c,hc
dihedral_coeff	10 aat  -29.04200  112.67000  111.27000  # c,c3h,c,o3e
dihedral_coeff	11 aat  -29.04200  112.67000  111.27000  # c,c3h,c,oc
dihedral_coeff	12 aat  -19.00590  111.27000  104.50000  # c,c3h,o3e,c
dihedral_coeff	13 aat  -16.44380  104.50000  108.72800  # c,o3e,c3h,hc
dihedral_coeff	14 aat  -16.44380  104.50000  108.72800  # c,oc,c1,hc
dihedral_coeff	15 aat    0.00000  102.96950  123.42000  # c,oc,cp,cp
dihedral_coeff	16 aat  -19.00590  111.27000  104.50000  # c1,c,oc,c1
dihedral_coeff	17 aat    0.00000  111.27000  102.96950  # c1,c,oc,cp
dihedral_coeff	18 aat    0.00000  111.27000  109.00000  # c1,c,oh,h
dihedral_coeff	19 aat  -16.44380  104.50000  108.72800  # c1,oc,c,hc
dihedral_coeff	20 aat    0.00000  111.27000  102.96950  # c3h,c,oc,cp
dihedral_coeff	21 aat  -16.44380  104.50000  108.72800  # c3h,o3e,c,hc
dihedral_coeff	22 aat    0.00000  118.90000  118.90000  # cp,cp,cp,cp
dihedral_coeff	23 aat   -4.81410  118.90000  117.94000  # cp,cp,cp,hc
dihedral_coeff	24 aat  -21.02470  118.90000  123.42000  # cp,cp,cp,oc
dihedral_coeff	25 aat    0.00000  102.96950  108.72800  # cp,oc,c,hc
dihedral_coeff	26 aat    0.00000  109.00000  108.72800  # h,oh,c,hc
dihedral_coeff	27 aat  -12.56400  110.77000  110.77000  # hc,c,c,hc
dihedral_coeff	28 aat  -20.20060  110.77000  111.27000  # hc,c,c,oc
dihedral_coeff	29 aat  -12.56400  110.77000  110.77000  # hc,c,c1,hc
dihedral_coeff	30 aat  -20.20060  110.77000  111.27000  # hc,c,c1,oc
dihedral_coeff	31 aat  -12.56400  110.77000  110.77000  # hc,c,c3h,hc
dihedral_coeff	32 aat  -20.20060  110.77000  111.27000  # hc,c,c3h,o3e
dihedral_coeff	33 aat  -20.20060  110.77000  111.27000  # hc,c1,c,oc
dihedral_coeff	34 aat  -20.20060  110.77000  111.27000  # hc,c1,c,oh
dihedral_coeff	35 aat  -20.20060  110.77000  111.27000  # hc,c3h,c,o3e
dihedral_coeff	36 aat  -20.20060  110.77000  111.27000  # hc,c3h,c,oc
dihedral_coeff	37 aat    0.35980  117.94000  117.94000  # hc,cp,cp,hc
dihedral_coeff	38 aat    4.22960  117.94000  123.42000  # hc,cp,cp,oc
dihedral_coeff	39 aat  -14.04840  111.27000  111.27000  # o3e,c3h,c,oc
dihedral_coeff	40 aat  -14.04840  111.27000  111.27000  # oc,c,c1,oc
dihedral_coeff	41 aat  -14.04840  111.27000  111.27000  # oc,c1,c,oh

# BondBond13 Coeffs

dihedral_coeff	 1 bb13    0.00000    1.53000    1.10100  # c,c,c,hc
dihedral_coeff	 2 bb13    0.00000    1.53000    1.42000  # c,c,c,oc
dihedral_coeff	 3 bb13    0.00000    1.53000    1.42000  # c,c,oc,c1
dihedral_coeff	 4 bb13    0.00000    1.53000    1.37680  # c,c,oc,cp
dihedral_coeff	 5 bb13    0.00000    1.53000    1.10100  # c,c1,c,hc
dihedral_coeff	 6 bb13    0.00000    1.53000    1.42000  # c,c1,c,oc
dihedral_coeff	 7 bb13    0.00000    1.53000    1.42000  # c,c1,c,oh
dihedral_coeff	 8 bb13    0.00000    1.53000    1.42000  # c,c1,oc,c
dihedral_coeff	 9 bb13    0.00000    1.53000    1.10100  # c,c3h,c,hc
dihedral_coeff	10 bb13    0.00000    1.53000    1.42000  # c,c3h,c,o3e
dihedral_coeff	11 bb13    0.00000    1.53000    1.42000  # c,c3h,c,oc
dihedral_coeff	12 bb13    0.00000    1.53000    1.42000  # c,c3h,o3e,c
dihedral_coeff	13 bb13    0.00000    1.42000    1.10100  # c,o3e,c3h,hc
dihedral_coeff	14 bb13    0.00000    1.42000    1.10100  # c,oc,c1,hc
dihedral_coeff	15 bb13    0.00000    1.42000    1.41700  # c,oc,cp,cp
dihedral_coeff	16 bb13    0.00000    1.53000    1.42000  # c1,c,oc,c1
dihedral_coeff	17 bb13    0.00000    1.53000    1.37680  # c1,c,oc,cp
dihedral_coeff	18 bb13    0.00000    1.53000    0.96000  # c1,c,oh,h
dihedral_coeff	19 bb13    0.00000    1.42000    1.10100  # c1,oc,c,hc
dihedral_coeff	20 bb13    0.00000    1.53000    1.37680  # c3h,c,oc,cp
dihedral_coeff	21 bb13    0.00000    1.42000    1.10100  # c3h,o3e,c,hc
dihedral_coeff	22 bb13   53.00000    1.41700    1.41700  # cp,cp,cp,cp
dihedral_coeff	23 bb13   -6.27410    1.41700    1.09820  # cp,cp,cp,hc
dihedral_coeff	24 bb13   -2.24360    1.41700    1.37680  # cp,cp,cp,oc
dihedral_coeff	25 bb13    0.00000    1.37680    1.10100  # cp,oc,c,hc
dihedral_coeff	26 bb13    0.00000    0.96000    1.10100  # h,oh,c,hc
dihedral_coeff	27 bb13    0.00000    1.10100    1.10100  # hc,c,c,hc
dihedral_coeff	28 bb13    0.00000    1.10100    1.42000  # hc,c,c,oc
dihedral_coeff	29 bb13    0.00000    1.10100    1.10100  # hc,c,c1,hc
dihedral_coeff	30 bb13    0.00000    1.10100    1.42000  # hc,c,c1,oc
dihedral_coeff	31 bb13    0.00000    1.10100    1.10100  # hc,c,c3h,hc
dihedral_coeff	32 bb13    0.00000    1.10100    1.42000  # hc,c,c3h,o3e
dihedral_coeff	33 bb13    0.00000    1.10100    1.42000  # hc,c1,c,oc
dihedral_coeff	34 bb13    0.00000    1.10100    1.42000  # hc,c1,c,oh
dihedral_coeff	35 bb13    0.00000    1.10100    1.42000  # hc,c3h,c,o3e
dihedral_coeff	36 bb13    0.00000    1.10100    1.42000  # hc,c3h,c,oc
dihedral_coeff	37 bb13   -1.70770    1.09820    1.09820  # hc,cp,cp,hc
dihedral_coeff	38 bb13    2.05170    1.09820    1.37680  # hc,cp,cp,oc
dihedral_coeff	39 bb13    0.00000    1.42000    1.42000  # o3e,c3h,c,oc
dihedral_coeff	40 bb13    0.00000    1.42000    1.42000  # oc,c,c1,oc
dihedral_coeff	41 bb13    0.00000    1.42000    1.42000  # oc,c1,c,oh

# Improper Coeffs

improper_coeff	 1    0.00000    0.00000  # c,c,c,hc
improper_coeff	 2    0.00000    0.00000  # c,c,hc,hc
improper_coeff	 3    0.00000    0.00000  # c,c,hc,oc
improper_coeff	 4    0.00000    0.00000  # c,c,oc,hc
improper_coeff	 5    0.00000    0.00000  # c,c1,hc,hc
improper_coeff	 6    0.00000    0.00000  # c,c1,hc,oc
improper_coeff	 7    0.00000    0.00000  # c,c1,hc,oh
improper_coeff	 8    0.00000    0.00000  # c,c1,oc,hc
improper_coeff	 9    0.00000    0.00000  # c,c3h,hc,hc
improper_coeff	10    0.00000    0.00000  # c,c3h,hc,oc
improper_coeff	11    0.00000    0.00000  # c,c3h,o3e,hc
improper_coeff	12    0.00000    0.00000  # c,hc,hc,o3e
improper_coeff	13    0.00000    0.00000  # c,hc,hc,oc
improper_coeff	14    0.00000    0.00000  # c,hc,hc,oh
improper_coeff	15    0.00000    0.00000  # c1,c,c,hc
improper_coeff	16    0.00000    0.00000  # c1,c,c,oc
improper_coeff	17    0.00000    0.00000  # c1,c,oc,hc
improper_coeff	18    0.00000    0.00000  # c3h,c,c,hc
improper_coeff	19    0.00000    0.00000  # c3h,c,c,o3e
improper_coeff	20    0.00000    0.00000  # c3h,c,o3e,hc
improper_coeff	21    4.89120    0.00000  # cp,cp,cp,hc
improper_coeff	22   13.04210    0.00000  # cp,cp,cp,oc

# AngleAngle Coeffs

improper_coeff	 1 aa   -1.31990   -1.31990    0.11840  112.67000  110.77000  110.77000  # c,c,c,hc
improper_coeff	 2 aa    0.27380   -0.48250    0.27380  110.77000  110.77000  107.66000  # c,c,hc,hc
improper_coeff	 3 aa    0.00000    0.00000    0.16890  110.77000  111.27000  108.72800  # c,c,hc,oc
improper_coeff	 4 aa    0.16890    0.00000    0.00000  111.27000  110.77000  108.72800  # c,c,oc,hc
improper_coeff	 5 aa    0.00000   -0.48250    0.00000  110.77000  110.77000  107.66000  # c,c1,hc,hc
improper_coeff	 6 aa    0.00000    0.00000    0.00000  110.77000  111.27000  108.72800  # c,c1,hc,oc
improper_coeff	 7 aa    0.00000    2.59260    0.00000  110.77000  111.27000  108.72800  # c,c1,hc,oh
improper_coeff	 8 aa    0.00000    0.00000    0.00000  111.27000  110.77000  108.72800  # c,c1,oc,hc
improper_coeff	 9 aa    0.00000   -0.48250    0.00000  110.77000  110.77000  107.66000  # c,c3h,hc,hc
improper_coeff	10 aa    0.00000    0.00000    0.00000  110.77000  111.27000  108.72800  # c,c3h,hc,oc
improper_coeff	11 aa    0.00000    2.59260    3.91770  111.27000  110.77000  108.72800  # c,c3h,o3e,hc
improper_coeff	12 aa    2.42590    2.42590    2.12830  107.66000  108.72800  108.72800  # c,hc,hc,o3e
improper_coeff	13 aa    0.00000    0.00000    2.12830  107.66000  108.72800  108.72800  # c,hc,hc,oc
improper_coeff	14 aa    2.42590    2.42590    2.12830  107.66000  108.72800  108.72800  # c,hc,hc,oh
improper_coeff	15 aa   -1.31990   -1.31990    0.11840  112.67000  110.77000  110.77000  # c1,c,c,hc
improper_coeff	16 aa    0.00000    0.00000   -3.57440  112.67000  111.27000  111.27000  # c1,c,c,oc
improper_coeff	17 aa    0.16890    0.00000    0.00000  111.27000  110.77000  108.72800  # c1,c,oc,hc
improper_coeff	18 aa   -1.31990   -1.31990    0.11840  112.67000  110.77000  110.77000  # c3h,c,c,hc
improper_coeff	19 aa   -0.83300   -0.83300   -3.57440  112.67000  111.27000  111.27000  # c3h,c,c,o3e
improper_coeff	20 aa    0.16890    2.59260    3.91770  111.27000  110.77000  108.72800  # c3h,c,o3e,hc
improper_coeff	21 aa    0.00000    0.00000    0.00000  118.90000  117.94000  117.94000  # cp,cp,cp,hc
improper_coeff	22 aa    0.00000    0.00000    0.00000  118.90000  123.42000  123.42000  # cp,cp,cp,oc

# ------------------------------- OPT Section -------------------------------
minimize 1.0e-5 1.0e-7 100000 400000
PPPM initialization ...
  using 12-bit tables for long-range coulomb (../kspace.cpp:342)
  G vector (1/distance) = 0.11322774
  grid = 4 4 4
  stencil order = 5
  estimated absolute RMS force accuracy = 0.33520679
  estimated relative force accuracy = 0.0010094653
  using double precision KISS FFT
  3d grid and FFT values/proc = 294 4
Generated 36 of 36 mixed pair_coeff terms from sixthpower/sixthpower mixing rule
Neighbor list info ...
  update: every = 1 steps, delay = 0 steps, check = yes
  max neighbors/atom: 2000, page size: 100000
  master list distance cutoff = 12
  ghost atom cutoff = 12
  binsize = 6, bins = 7 7 7
  1 neighbor lists, perpetual/occasional/extra = 1 0 0
  (1) pair lj/class2/coul/long, perpetual
      attributes: half, newton on
      pair build: half/bin/newton
      stencil: half/bin/3d
      bin: standard
WARNING: Inconsistent image flags (../domain.cpp:815)
  PPPM/cg optimization cutoff: 1e-05
  Total charged atoms: 100.0%
  Min/max charged atoms/proc: 100.0% 100.0%
Per MPI rank memory allocation (min/avg/max) = 16.15 | 16.16 | 16.17 Mbytes
   Step          Temp          E_pair         E_mol          TotEng         Press     
         0   611.25775      19.797713      8412.984       17542.998      1726.9189    
       104   611.25775     -650.31175      350.41909      8810.3235      3836.4548    
Loop time of 1.29274 on 24 procs for 104 steps with 5001 atoms

99.3% CPU use with 24 MPI tasks x no OpenMP threads

Minimization stats:
  Stopping criterion = linesearch alpha is zero
  Energy initial, next-to-last, final = 
      8432.78171907848  -299.892656702892  -299.892656702892
  Force two-norm initial, final = 3566.9395 61.440834
  Force max component initial, final = 170.67875 3.1871846
  Final line search alpha, max atom move = 2.1124525e-12 6.7327761e-12
  Iterations, force evaluations = 104 335

MPI task timing breakdown:
Section |  min time  |  avg time  |  max time  |%varavg| %total
---------------------------------------------------------------
Pair    | 0.56599    | 0.75423    | 0.93842    |   9.9 | 58.34
Bond    | 0.15138    | 0.18535    | 0.21922    |   4.0 | 14.34
Kspace  | 0.093893   | 0.29842    | 0.52111    |  18.2 | 23.08
Neigh   | 0.0052703  | 0.0052991  | 0.0053148  |   0.0 |  0.41
Comm    | 0.03979    | 0.040879   | 0.042788   |   0.5 |  3.16
Output  | 0          | 0          | 0          |   0.0 |  0.00
Modify  | 0          | 0          | 0          |   0.0 |  0.00
Other   |            | 0.008552   |            |       |  0.66

Nlocal:        208.375 ave         232 max         176 min
Histogram: 1 1 0 3 5 3 4 2 2 3
Nghost:           4263 ave        4354 max        4147 min
Histogram: 1 0 1 3 3 5 5 4 1 1
Neighs:        61277.9 ave       76515 max       46615 min
Histogram: 1 1 2 5 3 4 5 0 2 1

Total # of neighbors = 1470670
Ave neighs/atom = 294.07518
Ave special neighs/atom = 5.6904619
Neighbor list builds = 2
Dangerous builds = 0
# ------------------------------- Run Section -------------------------------
#

timestep 0.25
neighbor        2.0 bin
neigh_modify    delay 0 every 1 check yes

thermo_style custom step temp pe evdwl ecoul ebond eangle edihed eimp density vol
thermo 20000

variable        Rho equal density
variable        Temp equal temp
variable        Volume equal vol
fix             fDENS all ave/time 100 100 300000 v_Temp v_Rho v_Volume file temp_vs_density.txt
fix def1 all print 100 "${Temp} ${Rho} ${Volume} " file press.dat screen no

label           loop
variable        a loop 26
variable        b equal 600-20*($a-1)
variable        b equal 600-20*(1-1)
fix             fMOM all momentum 100 linear 1 1 1 angular
fix             fNPT all npt temp $b $b $(100.0*dt) iso 1 1 $(100.0*dt)
fix             fNPT all npt temp 600 $b $(100.0*dt) iso 1 1 $(100.0*dt)
fix             fNPT all npt temp 600 600 $(100.0*dt) iso 1 1 $(100.0*dt)
fix             fNPT all npt temp 600 600 25 iso 1 1 $(100.0*dt)
fix             fNPT all npt temp 600 600 25 iso 1 1 25
run             1200000
PPPM initialization ...
  using 12-bit tables for long-range coulomb (../kspace.cpp:342)
  G vector (1/distance) = 0.11322774
  grid = 4 4 4
  stencil order = 5
  estimated absolute RMS force accuracy = 0.33520679
  estimated relative force accuracy = 0.0010094653
  using double precision KISS FFT
  3d grid and FFT values/proc = 294 4
Generated 36 of 36 mixed pair_coeff terms from sixthpower/sixthpower mixing rule
WARNING: Inconsistent image flags (../domain.cpp:815)
Per MPI rank memory allocation (min/avg/max) = 15.03 | 15.04 | 15.04 Mbytes
   Step          Temp          PotEng         E_vdwl         E_coul         E_bond        E_angle        E_dihed        E_impro        Density         Volume    
       104   611.25775     -299.89266     -926.30514      1787.8561      457.35964      1582.0739     -1690.2669      1.2524837      0.96026592     61589.935    
     20000   609.88346      8658.8729     -144.88092      1798.1026      3637.8891      4636.3493     -25.556438      269.31749      0.91644374     64535.02     
     40000   595.28555      8574.0851     -228.00645      1781.7751      3798.1581      4727.4936     -237.53618      243.10116      0.94729891     62433.002    
     60000   599.79941      8493.0812     -287.88117      1765.4885      3709.402       4736.5886     -159.86055      241.2741       0.95358478     62021.455    
     80000   597.01491      8444.6414     -298.13316      1784.6264      3629.7555      4741.7964     -147.71837      246.31262      0.96563052     61247.769    
    100000   603.49281      8447.2118     -178.1158       1839.4154      3700.0534      4725.7561     -361.83922      234.33769      0.94158705     62811.734    
    120000   608.28355      8611.7737     -286.40193      1774.0482      3794.7278      4715.0554     -128.99889      255.51808      0.94636567     62494.57     
    140000   599.04339      8520.7033     -217.87676      1804.23        3562.4798      4754.477      -109.87426      240.11373      0.9338682      63330.901    
    160000   598.55335      8256.8777     -245.08907      1735.9598      3731.0526      4648.6604     -340.85689      238.82803      0.95806423     61731.472    
    180000   609.94         8325.7379     -331.20466      1831.6705      3761.1946      4622.1384     -295.50828      249.32295      0.96625886     61207.941    
    200000   609.54537      8362.1185     -343.07306      1799.5288      3623.2049      4747.5135     -213.12218      259.62889      0.96593213     61228.645    
    220000   608.90976      8068.7047     -391.81769      1787.4613      3653.4853      4573.5999     -277.47244      236.15323      0.97955261     60377.273    
    240000   602.42929      8432.8345     -360.40371      1770.5582      3766.4047      4733.2697     -212.00731      246.60094      0.9538327      62005.334    
    260000   601.80281      8298.4853     -353.79889      1807.1591      3688.5163      4648.9287     -216.21757      236.15177      0.96716397     61150.66     
    280000   597.43992      8471.1858     -399.50759      1779.8846      3775.0949      4781.1548     -196.10294      242.56959      0.97498344     60660.225    
    300000   608.79315      8271.9367     -424.78974      1761.4851      3710.4957      4721.6518     -233.72047      248.96857      0.96265308     61437.206    
    320000   600.30876      8175.5488     -397.80137      1768.6505      3643.9913      4639.2491     -227.14073      260.92507      0.97370323     60739.981    
    340000   596.73094      8597.6374     -295.0192       1788.2328      3777.6844      4731.9027     -144.73767      251.68951      0.96641319     61198.166    
    360000   591.2533       8378.6573     -347.02492      1773.1818      3736.8577      4763.7038     -265.11088      228.85477      0.9792119      60398.281    
    380000   613.3902       8568.8276     -275.38441      1802.6644      3776.5291      4743.5501     -219.54753      252.20484      0.95667448     61821.149    
    400000   614.91791      8302.7681     -398.31416      1778.503       3658.2366      4818.9942     -278.59691      236.18039      0.95307799     62054.434    
    420000   610.22862      8510.9607     -266.88043      1771.5572      3783.8955      4792.5391     -286.95975      229.38971      0.95173968     62141.693    
    440000   603.31445      8227.6624     -383.09751      1783.6327      3680.3038      4692.463      -273.30466      239.55578      0.97071076     60927.227    
    460000   601.91872      8334.1833     -381.96114      1779.0662      3741.9385      4724.037      -257.445        241.32771      0.95935756     61648.25     
    480000   600.31285      8384.1247     -402.74347      1813.9352      3729.4858      4719.5187     -216.17818      251.55674      0.9695925      60997.497    
    500000   601.33338      8291.8193     -349.37153      1797.2277      3599.4247      4770.9198     -253.02029      238.42037      0.95926999     61653.878    
    520000   599.02213      8622.985      -256.20966      1774.6295      3822.4422      4866.0013     -325.4411       254.20743      0.94203935     62781.576    
    540000   595.71588      8569.8099     -291.04963      1746.5835      3766.6123      4699.8344     -86.232938      245.53544      0.952749       62075.862    
    560000   597.82802      8406.8274     -365.9673       1773.483       3771.5122      4730.0835     -222.69694      232.24268      0.94513301     62576.076    
    580000   601.02363      8438.5949     -336.27742      1794.2804      3779.7419      4710.1354     -228.65921      231.48014      0.96154284     61508.144    
    600000   603.38682      8572.9905     -321.99197      1779.7216      3764.9469      4857.4294     -235.7538       240.78959      0.95488704     61936.871    
    620000   596.74767      8343.6786     -294.83858      1773.55        3657.2298      4740.1356     -257.05672      235.68088      0.94912397     62312.951    
    640000   607.51662      8459.6395     -257.99955      1796.2353      3662.5997      4706.6779     -195.4001       259.03388      0.95899196     61671.753    
    660000   601.66936      8364.8722     -341.55821      1770.6088      3724.2886      4638.3347     -171.908        257.35429      0.97555175     60624.887    
    680000   599.44681      8488.7905     -334.1452       1768.8455      3786.7824      4649.7062     -115.94283      243.61788      0.9628486      61424.73     
    700000   600.52773      8119.2614     -361.01931      1762.592       3652.9979      4557.2688     -220.02523      239.41118      0.95998255     61608.115    
    720000   593.15613      8341.7566     -425.51778      1805.9004      3646.1916      4789.9472     -203.32745      240.93539      0.96784382     61107.706    
    740000   591.66565      8402.4055     -269.02215      1757.3125      3735.8176      4609.5971     -154.20576      235.11743      0.95874361     61687.728    
    760000   594.77143      8387.7435     -249.39075      1793.5748      3633.673       4713.8334     -237.16329      246.27803      0.94960213     62281.574    
    780000   593.78713      8539.2523     -262.98254      1819.3899      3726.8008      4603.6097     -92.374493      256.45863      0.95301801     62058.339    
    800000   605.31461      8411.9344     -284.82328      1793.5549      3669.2759      4716.9635     -223.74933      253.33902      0.96305886     61411.32     
    820000   593.01407      8425.7935     -358.01322      1818.6601      3653.525       4819.8792     -243.25287      245.48908      0.94611746     62510.965    
    840000   605.32004      8492.3192     -353.94474      1823.8917      3706.8767      4824.4754     -227.34035      230.76073      0.95367745     62015.428    
    860000   606.7902       8455.4575     -226.12152      1813.7803      3616.9368      4733.6014     -201.61415      231.21063      0.94266267     62740.063    
    880000   593.55411      8501.6829     -251.976        1811.1504      3730.5151      4763.4732     -268.25387      226.84608      0.94447271     62619.824    
    900000   599.22071      8453.4525     -289.68201      1774.1662      3679.8786      4765.5088     -202.03245      238.54639      0.94634911     62495.663    
    920000   592.22225      8446.3336     -209.65861      1772.4643      3616.275       4622.7939     -100.06636      256.07318      0.9329493      63393.279    
    940000   603.30457      8510.5758     -299.19626      1783.0961      3814.5761      4667.3501     -195.70539      252.66228      0.9541795      61982.798    
    960000   581.46436      8348.0235     -335.44251      1821.8631      3728.6477      4738.926      -336.22129      241.49337      0.95702957     61798.211    
    980000   603.96447      8481.9168     -370.24242      1769.2712      3755.6658      4783.4        -202.54818      257.66694      0.96411491     61344.052    
   1000000   606.87383      8592.2677     -323.29068      1827.4352      3783.8334      4872.5707     -305.23234      247.67231      0.95203511     62122.41     
   1020000   594.4276       8383.8597     -337.59035      1774.1857      3693.6339      4739.6176     -216.69164      242.67973      0.96036127     61583.819    
   1040000   609.02335      8492.5546     -312.42693      1792.9173      3726.2655      4681.0635     -150.84866      267.8225       0.9552693      61912.086    
   1060000   596.53577      8553.8259     -348.58975      1818.7531      3718.6573      4798.4671     -183.49372      261.7344       0.95008489     62249.927    
   1080000   599.88741      8407.7643     -301.14027      1763.4023      3796.5325      4667.7865     -253.28345      245.93318      0.94642512     62490.644    
   1100000   594.87755      8334.5078     -365.13862      1774.8109      3724.2511      4599.8321     -139.16779      251.5609       0.953041       62056.842    
   1120000   611.05376      8161.8669     -360.6378       1790.9944      3633.561       4711.7541     -331.2705       229.71315      0.96592295     61229.227    
   1140000   613.53632      8445.1113     -335.45653      1804.3322      3708.1527      4768.739      -232.83517      242.03407      0.97015322     60962.242    
   1160000   599.35589      8388.1608     -219.31281      1772.9527      3785.6308      4695.4443     -354.78166      220.10303      0.96394141     61355.094    
   1180000   582.03823      8496.8185     -322.2758       1783.5152      3768.523       4717.8429     -180.19088      241.05302      0.96676882     61175.654    
   1200000   592.55449      8347.2386     -266.64583      1821.1032      3728.4848      4647.2747     -299.16755      228.31351      0.94078193     62865.488    
   1200104   596.89891      8224.5629     -310.22745      1829.8093      3638.6989      4619.876      -264.99861      223.89884      0.94373543     62668.745    
Loop time of 3552.05 on 24 procs for 1200000 steps with 5001 atoms

Performance: 7.297 ns/day, 3.289 hours/ns, 337.833 timesteps/s, 1.690 Matom-step/s
99.5% CPU use with 24 MPI tasks x no OpenMP threads

MPI task timing breakdown:
Section |  min time  |  avg time  |  max time  |%varavg| %total
---------------------------------------------------------------
Pair    | 1673.7     | 1851.4     | 2044.7     | 266.6 | 52.12
Bond    | 583.53     | 612.36     | 654.08     |  78.3 | 17.24
Kspace  | 639.77     | 867.34     | 1073.1     | 423.2 | 24.42
Neigh   | 54.682     | 54.768     | 54.826     |   0.6 |  1.54
Comm    | 118.17     | 120.7      | 122.85     |  11.9 |  3.40
Output  | 0.0030458  | 0.0035944  | 0.015765   |   4.2 |  0.00
Modify  | 31.762     | 33.453     | 34.977     |  15.7 |  0.94
Other   |            | 12.05      |            |       |  0.34

Nlocal:        208.375 ave         232 max         187 min
Histogram: 2 3 4 3 2 2 1 0 4 3
Nghost:        4194.33 ave        4235 max        4136 min
Histogram: 1 1 2 0 4 3 4 3 3 3
Neighs:          60082 ave       71008 max       50328 min
Histogram: 2 1 3 6 4 1 3 0 0 4

Total # of neighbors = 1441968
Ave neighs/atom = 288.33593
Ave special neighs/atom = 5.6904619
Neighbor list builds = 19716
Dangerous builds = 0
unfix           fNPT
unfix           fMOM
next            a
jump            SELF loop
variable        a loop 26
variable        b equal 600-20*($a-1)
variable        b equal 600-20*(2-1)
fix             fMOM all momentum 100 linear 1 1 1 angular
fix             fNPT all npt temp $b $b $(100.0*dt) iso 1 1 $(100.0*dt)
fix             fNPT all npt temp 580 $b $(100.0*dt) iso 1 1 $(100.0*dt)
fix             fNPT all npt temp 580 580 $(100.0*dt) iso 1 1 $(100.0*dt)
fix             fNPT all npt temp 580 580 25 iso 1 1 $(100.0*dt)
fix             fNPT all npt temp 580 580 25 iso 1 1 25
run             1200000
PPPM initialization ...
  using 12-bit tables for long-range coulomb (../kspace.cpp:342)
  G vector (1/distance) = 0.11274675
  grid = 4 4 4
  stencil order = 5
  estimated absolute RMS force accuracy = 0.33594077
  estimated relative force accuracy = 0.0010116756
  using double precision KISS FFT
  3d grid and FFT values/proc = 294 4
Generated 36 of 36 mixed pair_coeff terms from sixthpower/sixthpower mixing rule
WARNING: Inconsistent image flags (../domain.cpp:815)
Per MPI rank memory allocation (min/avg/max) = 15.03 | 15.04 | 15.23 Mbytes
   Step          Temp          PotEng         E_vdwl         E_coul         E_bond        E_angle        E_dihed        E_impro        Density         Volume    
   1200104   596.89891      8224.309      -310.22745      1823.142       3638.6989      4619.876      -264.99861      223.89884      0.94373543     62668.745    
   1220000   583.14519      8074.5772     -256.5829       1819.7582      3598.7504      4557.6265     -368.94115      229.46602      0.96296842     61417.087    
   1240000   576.84658      7913.7039     -372.84931      1806.7224      3403.6294      4541.266      -207.98869      248.66383      0.97261104     60808.188    
   1260000   579.9821       8210.9229     -289.25288      1826.2316      3634.793       4623.5507     -308.70288      230.44825      0.95862652     61695.263    
   1280000   566.00975      8097.6501     -348.74995      1793.486       3639.3103      4669.5102     -376.88083      225.34752      0.97350854     60752.128    
   1300000   587.61189      8024.5538     -264.89206      1770.64        3460.3562      4486.4252     -162.23252      239.09201      0.95941141     61644.79     
   1320000   579.10176      8265.4307     -278.35626      1777.1384      3610.3468      4639.6067     -217.00243      239.06457      0.96700608     61160.644    
   1340000   582.20717      7821.3591     -350.09396      1749.6701      3608.2953      4487.842      -386.66153      217.76875      0.97382221     60732.56     
   1360000   579.58896      8246.1668     -369.38634      1778.5341      3644.3682      4643.3943     -178.7991       233.63979      0.95751233     61767.054    
   1380000   575.9561       8126.2549     -319.95121      1791.5959      3569.2836      4469.4217     -142.44199      264.13006      0.96953743     61000.962    
   1400000   586.72488      8149.5895     -378.13119      1765.9781      3619.4552      4623.5351     -218.58212      241.71718      0.96722824     61146.597    
   1420000   576.66806      8083.9521     -431.51163      1801.5663      3631.8177      4613.117      -259.05211      233.71451      0.9670714      61156.513    
   1440000   571.78173      8036.2705     -381.39159      1771.5004      3547.7999      4639.5509     -283.07751      246.76071      0.96923085     61020.257    
   1460000   574.12823      8061.6798     -403.94399      1764.5305      3694.7119      4615.7486     -337.32083      233.07214      0.98050277     60318.764    
   1480000   581.29848      8104.5087     -360.62455      1775.3235      3655.4213      4604.7414     -299.29259      234.10244      0.97002463     60970.323    
   1500000   592.34662      7885.0003     -449.79583      1769.1769      3553.2436      4632.9653     -341.91442      227.17552      0.98419396     60092.541    
   1520000   571.79337      7718.6009     -413.43631      1791.1294      3491.2845      4561.7871     -445.16946      238.69897      0.98602096     59981.195    
   1540000   573.52817      8220.697      -409.40383      1764.2464      3561.7987      4856.2541     -283.30893      237.23381      0.98550003     60012.9      
   1560000   572.209        7990.9315     -399.52359      1797.4062      3450.479       4685.3933     -262.93935      224.43769      0.97054681     60937.52     
   1580000   575.35019      8124.2777     -308.39943      1785.3919      3587.1663      4559.5595     -244.85756      249.56221      0.97773738     60489.367    
   1600000   587.59133      8052.0531     -382.49039      1766.2221      3607.5277      4604.9189     -269.78572      231.64844      0.97155617     60874.211    
   1620000   592.57053      8282.2075     -348.35724      1797.2156      3675.837       4715.9751     -299.74407      247.45414      0.96495562     61290.607    
   1640000   579.76979      8031.4692     -269.1002       1738.2599      3469.6417      4641.5151     -258.85437      215.76684      0.95663355     61823.794    
   1660000   585.88773      8075.7172     -414.82269      1787.0127      3465.131       4701.9312     -197.7798       239.76812      0.97074925     60924.812    
   1680000   586.16235      8003.6332     -373.77062      1785.0855      3563.2306      4559.9304     -257.68528      232.37797      0.96728384     61143.082    
   1700000   579.05087      8187.5967     -415.28396      1766.8179      3543.2728      4687.3755     -129.1849       239.32443      0.98727942     59904.738    
   1720000   577.95987      8370.8911     -397.63502      1767.4806      3752.124       4743.8988     -229.27498      240.44182      0.98088464     60295.281    
   1740000   584.85772      8203.1484     -375.98134      1766.4557      3660.862       4638.3778     -215.40559      234.74419      0.96990657     60977.745    
   1760000   570.53688      7911.6629     -421.33154      1747.2593      3556.6387      4506.8661     -204.2845       232.27144      0.97410188     60715.123    
   1780000   577.84556      8040.3376     -361.80306      1782.2857      3597.3315      4533.9442     -249.3813       243.06758      0.9541847      61982.46     
   1800000   582.19344      7937.3933     -451.42988      1806.2678      3607.6719      4526.233      -279.47189      233.23222      0.96107529     61538.067    
   1820000   581.76957      8096.4324     -375.25919      1788.3223      3563.191       4726.6211     -344.46578      244.42743      0.96409797     61345.13     
   1840000   577.74544      8038.7526     -410.12276      1777.2867      3558.1165      4689.1392     -320.97936      251.13541      0.97042806     60944.976    
   1860000   576.27146      8105.3236     -434.62773      1776.3335      3528.4958      4686.2191     -187.46603      242.34655      0.97505713     60655.641    
   1880000   577.31826      7906.3775     -384.06056      1785.3782      3563.7785      4597.3528     -383.52121      232.63602      0.97355764     60749.064    
   1900000   574.28758      8004.7892     -421.51281      1773.4892      3585.5321      4652.0312     -316.82231      237.03249      0.97276046     60798.848    
   1920000   584.99512      8023.5265     -477.79785      1742.7255      3576.7403      4553.018      -124.71618      256.51343      0.98690534     59927.445    
   1940000   583.79032      8241.4477     -387.03981      1791.9732      3698.6397      4578.2299     -190.2546       254.46376      0.97945631     60383.209    
   1960000   583.86928      7775.9838     -371.93737      1752.6935      3465.8005      4472.2757     -261.53187      224.5093       0.95799982     61735.623    
   1980000   570.956        8167.5005     -402.51271      1790.587       3608.0818      4599.3047     -173.27966      251.05696      0.95997364     61608.687    
   2000000   583.72325      8223.5976     -381.35824      1762.8237      3643.0779      4787.6275     -309.75641      226.94667      0.9683215      61077.56     
   2020000   587.17896      7999.404      -332.16009      1768.5623      3595.8826      4584.4591     -343.37927      232.11565      0.9468293      62463.968    
   2040000   585.17668      8083.9888     -345.69963      1796.4006      3560.4843      4690.8873     -340.10419      227.6698       0.94882294     62332.721    
   2060000   593.90907      8139.934      -359.38481      1795.4439      3512.9275      4696.0669     -237.9104       239.07175      0.97086985     60917.243    
   2080000   591.70997      8196.9661     -364.39124      1758.758       3727.4708      4606.3929     -267.76325      241.05326      0.97247649     60816.602    
   2100000   579.34983      8021.3151     -353.91279      1784.8722      3598.3975      4565.4396     -305.84375      237.66626      0.96425538     61335.116    
   2120000   570.38207      8275.8532     -406.75187      1789.5385      3708.3412      4692.5326     -248.37687      246.86587      0.96216986     61468.061    
   2140000   586.75835      8094.3616     -430.0382       1783.285       3490.4646      4670.8917     -168.52336      253.6308       0.97938673     60387.499    
   2160000   576.91817      8232.883      -323.52078      1781.6807      3592.2301      4670.3143     -225.12105      242.98249      0.9553186      61908.891    
   2180000   581.52354      8024.0212     -364.03255      1799.7367      3615.0506      4592.2459     -345.55677      232.99294      0.96946329     61005.626    
   2200000   576.90723      8065.4673     -334.80716      1763.5815      3655.9087      4555.1777     -295.76661      227.27328      0.97198877     60847.118    
   2220000   572.86502      8133.5417     -395.00899      1779.7038      3689.9816      4708.0386     -387.90258      244.63798      0.96946081     61005.783    
   2240000   581.83324      7950.7407     -363.46239      1766.3335      3570.3747      4525.7713     -289.60103      246.64143      0.97564254     60619.246    
   2260000   579.76007      8115.8265     -433.01223      1761.2931      3642.9425      4665.8682     -265.29519      250.01005      0.97656879     60561.751    
   2280000   575.45411      7933.5762     -408.17263      1777.2604      3598.393       4493.9296     -270.61307      248.87167      0.97720865     60522.096    
   2300000   594.78632      8181.3614     -397.09519      1757.8854      3696.2054      4689.6345     -294.13229      234.87176      0.97772784     60489.957    
   2320000   579.0642       7905.2543     -379.19871      1797.1262      3536.4739      4506.8453     -273.12685      222.48936      0.98091564     60293.376    
   2340000   577.0511       7971.4304     -435.834        1766.8208      3503.1928      4683.1718     -273.96747      232.29299      0.96612931     61216.149    
   2360000   580.47354      7861.3515     -434.11764      1769.0661      3518.8853      4582.2979     -298.21373      228.93754      0.97382216     60732.563    
   2380000   576.87047      8153.1965     -377.28346      1770.9662      3508.5173      4740.762      -242.91172      258.60777      0.96478383     61301.52     
   2400000   588.78806      8091.9452     -348.26739      1758.1916      3598.2188      4708.9115     -343.91574      224.35135      0.98084519     60297.706    
   2400104   573.35518      8139.2649     -417.72602      1759.5064      3571.6579      4746.3088     -255.41836      240.29281      0.97914796     60402.225    
Loop time of 3563.79 on 24 procs for 1200000 steps with 5001 atoms

Performance: 7.273 ns/day, 3.300 hours/ns, 336.721 timesteps/s, 1.684 Matom-step/s
99.5% CPU use with 24 MPI tasks x no OpenMP threads

MPI task timing breakdown:
Section |  min time  |  avg time  |  max time  |%varavg| %total
---------------------------------------------------------------
Pair    | 1711.3     | 1872.3     | 2082.1     | 276.1 | 52.54
Bond    | 589.52     | 608.92     | 648.45     |  58.4 | 17.09
Kspace  | 615.36     | 864.09     | 1039.4     | 429.6 | 24.25
Neigh   | 51.517     | 51.598     | 51.661     |   0.6 |  1.45
Comm    | 118.68     | 121.37     | 123.74     |  12.1 |  3.41
Output  | 0.0041378  | 0.0044439  | 0.011046   |   2.1 |  0.00
Modify  | 31.573     | 33.302     | 34.763     |  15.9 |  0.93
Other   |            | 12.16      |            |       |  0.34

Nlocal:        208.375 ave         237 max         185 min
Histogram: 1 4 2 3 4 4 1 3 1 1
Nghost:        4320.88 ave        4385 max        4270 min
Histogram: 3 4 2 4 1 3 1 1 3 2
Neighs:          62411 ave       73631 max       51363 min
Histogram: 1 1 2 5 5 3 2 2 1 2

Total # of neighbors = 1497864
Ave neighs/atom = 299.5129
Ave special neighs/atom = 5.6904619
Neighbor list builds = 19111
Dangerous builds = 0
unfix           fNPT
unfix           fMOM
next            a
jump            SELF loop
variable        a loop 26
variable        b equal 600-20*($a-1)
variable        b equal 600-20*(3-1)
fix             fMOM all momentum 100 linear 1 1 1 angular
fix             fNPT all npt temp $b $b $(100.0*dt) iso 1 1 $(100.0*dt)
fix             fNPT all npt temp 560 $b $(100.0*dt) iso 1 1 $(100.0*dt)
fix             fNPT all npt temp 560 560 $(100.0*dt) iso 1 1 $(100.0*dt)
fix             fNPT all npt temp 560 560 25 iso 1 1 $(100.0*dt)
fix             fNPT all npt temp 560 560 25 iso 1 1 25
run             1200000
PPPM initialization ...
  using 12-bit tables for long-range coulomb (../kspace.cpp:342)
  G vector (1/distance) = 0.11376846
  grid = 4 4 4
  stencil order = 5
  estimated absolute RMS force accuracy = 0.33435715
  estimated relative force accuracy = 0.0010069066
  using double precision KISS FFT
  3d grid and FFT values/proc = 294 4
Generated 36 of 36 mixed pair_coeff terms from sixthpower/sixthpower mixing rule
WARNING: Inconsistent image flags (../domain.cpp:815)
Per MPI rank memory allocation (min/avg/max) = 15.03 | 15.04 | 15.23 Mbytes
   Step          Temp          PotEng         E_vdwl         E_coul         E_bond        E_angle        E_dihed        E_impro        Density         Volume    
   2400104   573.35518      8140.9168     -417.72602      1774.774       3571.6579      4746.3088     -255.41836      240.29281      0.97914796     60402.225    
   2420000   555.15998      7891.3176     -458.00447      1752.6958      3569.5678      4563.1243     -253.33021      235.9752       0.9809691      60290.09     
   2440000   566.05593      7567.0662     -430.44403      1790.391       3415.6641      4497.1557     -409.71989      222.03522      0.98363911     60126.437    
   2460000   559.21906      7633.5964     -425.92178      1765.1382      3435.6953      4667.2978     -507.4509       217.27277      0.9976938      59279.426    
   2480000   568.68825      7596.1773     -598.11494      1792.1321      3563.6219      4527.4472     -400.83898      231.60285      0.98122711     60274.237    
   2500000   569.7516       7651.8164     -466.88132      1803.9378      3523.3983      4484.4614     -401.47545      227.71547      0.99451964     59468.625    
   2520000   565.47468      7608.4562     -444.83466      1762.0229      3568.827       4396.2868     -389.62477      234.61356      0.99285966     59568.051    
   2540000   556.62897      7411.9746     -544.93437      1771.3194      3547.1535      4398.2791     -459.26621      218.62198      0.9895127      59769.536    
   2560000   559.14979      7864.7716     -379.50074      1811.2359      3538.1698      4601.4895     -419.56912      230.90826      0.97145708     60880.42     
   2580000   557.74752      7733.8571     -430.30247      1771.1075      3470.3822      4519.9717     -307.55583      229.36834      0.96652903     61190.832    
   2600000   561.49351      7860.8202     -373.22671      1829.5474      3496.2441      4540.3454     -350.62024      235.69536      0.9714202      60882.731    
   2620000   567.87946      7608.4988     -576.99551      1808.2235      3487.0139      4542.3053     -342.70691      210.06628      0.98424573     60089.38     
   2640000   547.16098      7628.8212     -387.33321      1792.8249      3420.2668      4485.4321     -373.38221      209.77977      0.97540549     60633.978    
   2660000   564.23572      7603.7646     -413.1087       1781.3404      3415.1104      4401.5483     -287.56148      226.39395      0.97778026     60486.714    
   2680000   565.44154      7672.6        -440.77216      1771.8737      3459.3088      4478.2278     -307.76702      230.38558      0.97816907     60462.671    
   2700000   562.32683      7786.6434     -406.74801      1803.0369      3442.9083      4659.3443     -424.22859      231.98882      0.97443514     60694.358    
   2720000   566.58704      7662.3057     -458.42865      1792.7365      3494.5345      4476.9853     -342.23946      217.44207      0.97795842     60475.695    
   2740000   569.41907      7786.8369     -393.93477      1807.3498      3609.2077      4431.4251     -365.08276      217.1337       0.97694994     60538.122    
   2760000   559.4894       7944.6827     -467.90954      1807.1305      3544.7161      4679.8526     -353.26107      253.1517       0.99174782     59634.832    
   2780000   548.23173      7715.3844     -376.84804      1757.2225      3496.3945      4476.6392     -351.79494      233.40069      0.98265837     60186.446    
   2800000   556.30768      8006.1854     -419.81678      1757.6238      3627.3906      4661.6342     -339.28282      238.38208      0.96221248     61465.338    
   2820000   552.1963       7699.317      -369.87778      1770.9073      3543.3564      4418.989      -385.79965      240.95738      0.97809235     60467.414    
   2840000   561.90753      7545.8989     -487.28756      1781.3451      3359.1586      4523.5655     -339.16122      227.76075      0.99044765     59713.116    
   2860000   559.6827       7735.2937     -429.80089      1779.2437      3535.9595      4527.4142     -384.81556      226.06377      0.98833635     59840.676    
   2880000   559.38959      7576.3159     -476.02854      1795.48        3475.5212      4444.4329     -372.61521      229.46606      0.99730594     59302.48     
   2900000   564.3266       7640.0814     -441.05384      1765.9692      3466.8636      4543.6889     -399.69642      223.93358      0.98826153     59845.206    
   2920000   563.44297      7844.8036     -386.79962      1786.5542      3595.5568      4475.5681     -338.25894      231.89402      0.97698487     60535.958    
   2940000   569.13999      7586.2679     -475.87699      1770.9323      3503.8586      4454.9653     -382.56785      234.19585      0.98644173     59955.61     
   2960000   559.15693      7693.2727     -421.08663      1810.1694      3521.1008      4413.352      -348.8812       237.71657      0.98027154     60332.992    
   2980000   559.93048      7743.8868     -431.56006      1788.0664      3647.8162      4407.9615     -389.23888      239.83275      0.97939543     60386.962    
   3000000   563.36444      7752.8215     -476.36526      1764.3546      3454.8369      4621.6944     -325.13596      231.91585      0.98592568     59986.991    
   3020000   568.20391      7663.0052     -411.73424      1786.9203      3480.0381      4502.707      -408.0015       231.75252      0.97030329     60952.813    
   3040000   566.49973      7687.1337     -495.16472      1776.4952      3457.5425      4555.9423     -333.96156      244.6915       1.0052458      58834.086    
   3060000   554.43303      7681.0044     -486.50227      1759.0133      3475.4712      4569.3119     -341.58152      224.54107      0.98909194     59794.962    
   3080000   547.91856      7901.8721     -367.65249      1838.245       3575.5747      4537.8695     -383.05121      220.77723      0.96629038     61205.944    
   3100000   562.95342      7744.3335     -401.13507      1776.967       3488.2251      4486.9858     -331.97079      244.27182      0.9714526      60880.701    
   3120000   550.74349      7748.7971     -414.10805      1805.2302      3444.7379      4484.6324     -282.3506       229.68942      0.96165775     61500.794    
   3140000   554.09458      7610.5723     -395.11893      1797.8026      3498.4858      4440.114      -427.37964      215.55714      0.98355251     60131.731    
   3160000   570.6251       7883.3516     -448.29453      1770.0484      3577.9138      4622.9675     -358.39743      236.9547       0.98215915     60217.039    
   3180000   560.69219      7837.4506     -517.64274      1790.4814      3491.1748      4801.0384     -422.06743      213.70157      0.98174167     60242.645    
   3200000   548.80856      7798.0937     -432.81939      1765.5288      3609.8388      4527.5794     -384.7274       232.27048      0.97837185     60450.14     
   3220000   547.55581      7539.6246     -469.19912      1780.2665      3446.1239      4404.4085     -334.02997      231.28717      0.98226085     60210.803    
   3240000   551.7301       7635.9837     -546.47676      1792.5112      3481.2371      4554.3144     -348.27152      221.59923      0.99402154     59498.424    
   3260000   567.32299      7510.3894     -459.72216      1799.7195      3453.1818      4439.8508     -435.79757      231.28504      0.97697956     60536.287    
   3280000   563.63088      7715.2172     -435.01171      1771.9562      3386.5331      4584.8253     -319.14449      245.03764      0.9945069      59469.386    
   3300000   554.24644      7849.886      -360.2532       1804.6111      3545.3739      4458.2715     -318.35288      240.70642      0.96844758     61069.609    
   3320000   562.95852      7836.4649     -407.03555      1767.3968      3533.0786      4570.5632     -344.25544      236.11242      0.98011269     60342.77     
   3340000   561.21666      7581.4762     -480.34183      1778.4227      3398.6721      4529.529      -355.4467       229.79028      0.9704343      60944.585    
   3360000   561.81865      7814.2154     -441.77648      1760.5591      3522.3762      4553.9957     -299.91584      237.84954      0.96876232     61049.769    
   3380000   562.77625      7875.6871     -391.65184      1771.9002      3433.2557      4551.6007     -208.60685      238.0861       0.97213291     60838.096    
   3400000   562.19978      7600.4362     -411.7819       1756.5604      3502.1551      4414.4959     -373.08773      231.17076      0.97317221     60773.124    
   3420000   559.27283      7879.6686     -451.86179      1748.4295      3623.2523      4599.229      -362.77604      242.34595      0.98308228     60160.494    
   3440000   557.32753      7572.1099     -394.19348      1798.3767      3425.184       4454.2877     -433.94488      241.16517      0.96805328     61094.484    
   3460000   574.57414      7960.814      -407.06754      1745.9282      3613.1849      4560.65       -274.35115      241.26479      0.98131906     60268.589    
   3480000   553.44929      7694.4016     -416.48639      1779.1506      3507.0574      4508.2011     -380.97856      216.96717      0.97641454     60571.318    
   3500000   560.1368       7557.9764     -400.46621      1775.76        3555.2397      4405.131      -473.66332      215.00984      0.98464277     60065.149    
   3520000   556.66918      7780.6636     -472.20218      1770.9206      3500.2645      4577.8603     -309.31656      232.00551      0.97486179     60667.795    
   3540000   560.33778      7802.2932     -429.83858      1797.9306      3445.6269      4491.5599     -221.34906      237.43668      0.98044981     60322.022    
   3560000   562.98174      7689.0722     -400.47192      1793.3329      3592.4416      4376.5032     -386.87718      233.01677      0.97427984     60704.033    
   3580000   554.85534      7719.3967     -496.46256      1795.6898      3468.1299      4484.6921     -252.89847      239.32034      0.99693788     59324.373    
   3600000   564.30168      7705.6862     -405.49652      1782.5413      3567.0891      4501.1245     -441.48928      222.42115      0.96639808     61199.124    
   3600104   562.78865      7648.5088     -369.67049      1778.2844      3418.1776      4487.1286     -366.78839      221.33552      0.97152988     60875.858    
Loop time of 3569.88 on 24 procs for 1200000 steps with 5001 atoms

Performance: 7.261 ns/day, 3.305 hours/ns, 336.146 timesteps/s, 1.681 Matom-step/s
99.5% CPU use with 24 MPI tasks x no OpenMP threads

MPI task timing breakdown:
Section |  min time  |  avg time  |  max time  |%varavg| %total
---------------------------------------------------------------
Pair    | 1733.4     | 1896.2     | 2059.7     | 237.6 | 53.12
Bond    | 570.78     | 608.65     | 639.51     |  82.0 | 17.05
Kspace  | 681        | 847.58     | 1032.5     | 367.7 | 23.74
Neigh   | 50.26      | 50.3       | 50.324     |   0.3 |  1.41
Comm    | 119.64     | 122.09     | 124.11     |  11.4 |  3.42
Output  | 0.0029413  | 0.0032896  | 0.010822   |   2.7 |  0.00
Modify  | 31.485     | 33.186     | 34.521     |  15.9 |  0.93
Other   |            | 11.87      |            |       |  0.33

Nlocal:        208.375 ave         234 max         184 min
Histogram: 2 3 2 1 3 5 3 2 1 2
Nghost:        4298.25 ave        4351 max        4189 min
Histogram: 1 0 1 1 0 5 6 2 4 4
Neighs:        61833.8 ave       70899 max       49662 min
Histogram: 2 0 1 3 4 3 3 2 4 2

Total # of neighbors = 1484012
Ave neighs/atom = 296.74305
Ave special neighs/atom = 5.6904619
Neighbor list builds = 18522
Dangerous builds = 0
unfix           fNPT
unfix           fMOM
next            a
jump            SELF loop
variable        a loop 26
variable        b equal 600-20*($a-1)
variable        b equal 600-20*(4-1)
fix             fMOM all momentum 100 linear 1 1 1 angular
fix             fNPT all npt temp $b $b $(100.0*dt) iso 1 1 $(100.0*dt)
fix             fNPT all npt temp 540 $b $(100.0*dt) iso 1 1 $(100.0*dt)
fix             fNPT all npt temp 540 540 $(100.0*dt) iso 1 1 $(100.0*dt)
fix             fNPT all npt temp 540 540 25 iso 1 1 $(100.0*dt)
fix             fNPT all npt temp 540 540 25 iso 1 1 25
run             1200000
PPPM initialization ...
  using 12-bit tables for long-range coulomb (../kspace.cpp:342)
  G vector (1/distance) = 0.1135514
  grid = 4 4 4
  stencil order = 5
  estimated absolute RMS force accuracy = 0.33470132
  estimated relative force accuracy = 0.0010079431
  using double precision KISS FFT
  3d grid and FFT values/proc = 294 4
Generated 36 of 36 mixed pair_coeff terms from sixthpower/sixthpower mixing rule
WARNING: Inconsistent image flags (../domain.cpp:815)
Per MPI rank memory allocation (min/avg/max) = 15.03 | 15.04 | 15.23 Mbytes
   Step          Temp          PotEng         E_vdwl         E_coul         E_bond        E_angle        E_dihed        E_impro        Density         Volume    
   3600104   562.78865      7648.1953     -369.67049      1775.0757      3418.1776      4487.1286     -366.78839      221.33552      0.97152988     60875.858    
   3620000   529.3399       7402.0136     -418.0866       1809.2773      3404.0239      4281.8858     -393.2336       234.97976      0.98574379     59998.06     
   3640000   548.77054      7392.3665     -377.65301      1780.3372      3361.4974      4375.7742     -449.83893      218.72374      0.97394447     60724.935    
   3660000   531.57386      7104.645      -519.78293      1772.3281      3343.881       4272.4845     -458.8134       209.08263      1.0106848      58517.466    
   3680000   526.97349      7514.3517     -521.08399      1810.955       3497.261       4475.6917     -457.53773      223.63251      0.99172672     59636.101    
   3700000   543.21445      7334.6575     -510.91184      1809.4325      3342.5072      4377.9241     -384.81572      217.02994      0.99382568     59510.15     
   3720000   540.01681      7329.4679     -519.04922      1783.2594      3346.2593      4444.5295     -423.35595      215.14556      0.98840116     59836.752    
   3740000   525.18683      7404.9501     -500.99037      1792.5625      3463.4988      4386.9572     -438.17959      218.16139      0.99244978     59592.653    
[...]
  24500000   199.86825      1376.8971     -1349.8786      1723.2805      1479.096       2520.904      -1494.5596      75.645015      1.1394471      51904.747    
  24520000   201.34692      1461.9635     -1338.9324      1734.0364      1516.0676      2528.0761     -1483.0077      83.298276      1.1418242      51796.692    
  24540000   203.11779      1316.7155     -1359.9337      1714.0912      1486.4206      2512.5261     -1534.197       75.630151      1.1423395      51773.327    
  24560000   197.73081      1373.2374     -1362.1228      1720.761       1494.8574      2532.5639     -1511.675       76.598575      1.1503807      51411.43     
  24580000   199.57222      1436.6995     -1406.9077      1709.424       1501.5599      2615.0851     -1487.1268      82.160289      1.1454129      51634.407    
  24600000   203.3231       1387.7079     -1393.2456      1716.7621      1485.7492      2571.5258     -1495.4133      79.978579      1.1479418      51520.658    
  24620000   197.77177      1389.1704     -1398.6924      1711.2383      1487.8943      2599.8228     -1511.2165      77.733576      1.1475443      51538.501    
  24640000   200.92354      1429.9294     -1344.2078      1707.9561      1534.4798      2530.7933     -1501.209       79.332603      1.1428188      51751.61     
  24660000   201.40472      1443.8017     -1367.0947      1731.5662      1501.8678      2518.8346     -1446.0471      82.337263      1.1437697      51708.587    
  24680000   204.31615      1411.3834     -1360.0049      1699.9757      1494.7892      2535.9398     -1462.7319      81.124347      1.1471197      51557.578    
  24700000   200.80997      1379.6212     -1368.5724      1713.8723      1491.546       2511.5128     -1474.0502      82.702786      1.1414101      51815.483    
  24720000   200.43318      1423.6925     -1382.0527      1705.0064      1526.1155      2502.6704     -1436.139       85.674124      1.150539       51404.355    
  24740000   198.29437      1435.3889     -1349.127       1726.1376      1495.2017      2513.5639     -1451.712       78.834432      1.1484644      51497.215    
  24760000   198.18731      1474.8665     -1386.1974      1720.0754      1523.971       2576.5795     -1462.9908      81.076235      1.1406126      51851.71     
  24780000   201.426        1481.9553     -1352.0393      1713.3324      1501.0342      2585.8293     -1469.2534      80.639281      1.1366123      52034.205    
  24800000   197.31482      1430.7586     -1340.5011      1737.0473      1500.2815      2512.2936     -1477.0771      76.470173      1.1474755      51541.594    
  24820000   202.52938      1400.7602     -1348.767       1730.3588      1516.8107      2560.519      -1562.1205      81.425584      1.1471611      51555.721    
  24840000   196.7363       1451.472      -1399.2454      1713.6181      1513.4181      2581.7111     -1460.9486      80.826095      1.1431825      51735.148    
  24860000   200.79422      1413.2247     -1364.1159      1728.3846      1527.2686      2462.3051     -1444.3698      81.227773      1.1481442      51511.574    
  24880000   197.11738      1395.5457     -1374.1313      1718.9745      1504.6966      2516.1376     -1475.4796      82.781766      1.1420344      51787.155    
  24900000   200.48547      1447.1039     -1362.8214      1714.07        1546.1374      2551.202      -1505.6486      81.702857      1.1388915      51930.072    
  24920000   197.62753      1486.0196     -1339.7876      1718.9352      1542.7043      2497.534      -1441.4187      85.767876      1.1440565      51695.624    
  24940000   200.03208      1426.113      -1367.9138      1731.5758      1499.4791      2538.2689     -1480.8216      83.352458      1.145998       51608.045    
  24960000   198.88701      1469.5204     -1387.2468      1716.1827      1558.8907      2537.1367     -1461.1972      83.433588      1.1457714      51618.252    
  24980000   201.1713       1451.405      -1359.6364      1730.6093      1526.2691      2520.8286     -1465.7539      77.013961      1.142117       51783.412    
  25000000   199.82968      1527.782      -1373.1529      1709.3034      1595.449       2579.1009     -1484.2192      78.48744       1.1437875      51707.782    
  25020000   200.40287      1398.8098     -1361.0471      1716.1957      1498.4423      2507.217      -1470.4286      85.77857       1.1429001      51747.929    
  25040000   200.10959      1344.5002     -1355.4004      1716.0032      1469.9176      2463.7414     -1453.3243      81.221264      1.1434111      51724.806    
  25060000   199.21765      1437.8396     -1369.441       1707.6084      1504.7258      2600.0379     -1507.3479      79.888172      1.1463076      51594.105    
  25080000   203.19256      1414.4486     -1341.9208      1725.8527      1489.5416      2508.7301     -1471.8486      81.906485      1.1488882      51478.217    
  25100000   201.6769       1449.621      -1373.5178      1694.3407      1545.1156      2560.8508     -1478.1921      78.805755      1.1349804      52109.018    
  25120000   201.48678      1436.3166     -1338.9446      1726.3783      1495.5667      2506.8283     -1452.7642      76.878217      1.1454453      51632.944    
  25140000   198.71433      1401.239      -1399.2981      1728.582       1497.5636      2544.0441     -1469.2246      76.952307      1.1460995      51603.475    
  25160000   199.1821       1407.5736     -1350.395       1720.6847      1477.8637      2509.8825     -1453.713       80.906951      1.1407948      51843.43     
  25180000   200.05194      1452.3504     -1341.4169      1703.434       1519.1121      2547.3292     -1473.3399      74.938794      1.1444938      51675.874    
  25200000   201.10062      1385.3127     -1359.3445      1711.0722      1541.1934      2529.6915     -1534.9405      75.309643      1.1446814      51667.405    
  25200104   200.61187      1444.9987     -1377.3443      1706.4005      1526.1306      2548.636      -1460.6294      79.573697      1.1433296      51728.493    
Loop time of 3882.82 on 24 procs for 1200000 steps with 5001 atoms

Performance: 6.676 ns/day, 3.595 hours/ns, 309.054 timesteps/s, 1.546 Matom-step/s
99.5% CPU use with 24 MPI tasks x no OpenMP threads

MPI task timing breakdown:
Section |  min time  |  avg time  |  max time  |%varavg| %total
---------------------------------------------------------------
Pair    | 1791.2     | 2202.4     | 2564       | 406.8 | 56.72
Bond    | 505.4      | 599.65     | 670.18     | 174.0 | 15.44
Kspace  | 464.41     | 889.4      | 1378.8     | 725.2 | 22.91
Neigh   | 16.597     | 16.615     | 16.633     |   0.2 |  0.43
Comm    | 126.43     | 128.74     | 132.11     |  13.2 |  3.32
Output  | 0.011796   | 0.012564   | 0.029743   |   3.2 |  0.00
Modify  | 31.262     | 33.443     | 35.073     |  18.8 |  0.86
Other   |            | 12.52      |            |       |  0.32

Nlocal:        208.375 ave         223 max         190 min
Histogram: 1 3 0 2 3 4 2 5 2 2
Nghost:        4811.46 ave        4852 max        4774 min
Histogram: 2 4 1 5 2 1 2 2 3 2
Neighs:        72933.8 ave       82516 max       62205 min
Histogram: 3 0 3 4 2 2 1 3 2 4

Total # of neighbors = 1750411
Ave neighs/atom = 350.0122
Ave special neighs/atom = 5.6904619
Neighbor list builds = 5749
Dangerous builds = 0
unfix           fNPT
unfix           fMOM
next            a
jump            SELF loop
variable        a loop 26
variable        b equal 600-20*($a-1)
variable        b equal 600-20*(22-1)
fix             fMOM all momentum 100 linear 1 1 1 angular
fix             fNPT all npt temp $b $b $(100.0*dt) iso 1 1 $(100.0*dt)
fix             fNPT all npt temp 180 $b $(100.0*dt) iso 1 1 $(100.0*dt)
fix             fNPT all npt temp 180 180 $(100.0*dt) iso 1 1 $(100.0*dt)
fix             fNPT all npt temp 180 180 25 iso 1 1 $(100.0*dt)
fix             fNPT all npt temp 180 180 25 iso 1 1 25
run             1200000
PPPM initialization ...
  using 12-bit tables for long-range coulomb (../kspace.cpp:342)
  G vector (1/distance) = 0.11812186
  grid = 4 4 4
  stencil order = 5
  estimated absolute RMS force accuracy = 0.32660988
  estimated relative force accuracy = 0.00098357597
  using double precision KISS FFT
  3d grid and FFT values/proc = 294 4
Generated 36 of 36 mixed pair_coeff terms from sixthpower/sixthpower mixing rule
WARNING: Inconsistent image flags (../domain.cpp:815)
Per MPI rank memory allocation (min/avg/max) = 15.03 | 15.06 | 15.24 Mbytes
   Step          Temp          PotEng         E_vdwl         E_coul         E_bond        E_angle        E_dihed        E_impro        Density         Volume    
  25200104   200.61187      1445.053      -1377.3443      1706.9014      1526.1306      2548.636      -1460.6294      79.573697      1.1433296      51728.493    
  25220000   181.96585      1102.9438     -1364.061       1715.7541      1407.2662      2403.041      -1553.6363      72.512217      1.1512263      51373.667    
  25240000   180.58905      1129.8514     -1413.8103      1710.2139      1362.7501      2443.0338     -1467.3387      73.191235      1.151345       51368.371    
  25260000   180.16191      1110.2118     -1390.6703      1692.7165      1406.6353      2421.1887     -1510.3001      68.817963      1.1545048      51227.776    
  25280000   176.979        1126.6157     -1370.6753      1732.1577      1354.1048      2456.547      -1539.6701      71.965455      1.1539761      51251.248    
  25300000   178.87854      1116.1694     -1393.6564      1730.1374      1404.9245      2427.1525     -1550.1091      75.797956      1.1437658      51708.765    
  25320000   178.22631      1161.8157     -1363.1408      1724.7394      1429.9095      2410.215      -1538.2493      76.200049      1.1473394      51547.707    
  25340000   180.1447       1105.6947     -1397.2327      1708.8099      1410.1527      2421.07       -1533.669       74.756737      1.1572932      51104.348    
  25360000   182.86459      1112.6598     -1407.2051      1731.4191      1375.701       2401.6743     -1483.3432      72.479561      1.1484706      51496.933    
  25380000   181.03072      1140.1814     -1418.3432      1729.908       1408.908       2496.8934     -1570.262       71.260669      1.1483711      51501.396    
  25400000   182.5992       1092.4928     -1401.9192      1726.5698      1371.6727      2400.3618     -1502.4609      76.569688      1.1524803      51317.768    
  25420000   178.2006       1088.366      -1397.1625      1712.0147      1338.1742      2440.8589     -1504.9383      77.48003       1.1522761      51326.862    
  25440000   180.16158      1172.7125     -1382.5634      1721.1435      1437.0012      2427.9874     -1526.9843      74.36635       1.1479999      51518.048    
  25460000   183.3601       1097.8355     -1398.4594      1721.8761      1434.01        2416.2071     -1563.1432      65.543853      1.1486118      51490.603    
  25480000   180.03944      1129.6708     -1413.6283      1718.6629      1407.4358      2420.8368     -1499.6266      73.959914      1.1529289      51297.801    
  25500000   178.51414      1200.9824     -1413.9037      1723.1375      1467.217       2455.2871     -1529.8904      77.581973      1.1484719      51496.876    
  25520000   182.94084      1104.4993     -1377.8097      1702.0887      1384.4962      2490.3406     -1586.4711      70.120024      1.1519295      51342.304    
  25540000   183.69933      1127.4407     -1392.7904      1713.7534      1413.5636      2366.5019     -1469.8959      74.886448      1.1494364      51453.663    
  25560000   178.78702      1089.1986     -1397.6104      1716.3289      1392.7162      2448.7689     -1564.7722      71.812729      1.1485569      51493.067    
  25580000   179.92909      1092.2609     -1368.983       1702.0741      1394.9383      2392.9005     -1521.1513      70.247028      1.1501597      51421.308    
  25600000   182.7605       1180.2211     -1403.0589      1722.5484      1405.5559      2480.808      -1520.8316      73.554692      1.1528756      51300.172    
  25620000   179.76401      1128.0967     -1400.397       1722.5949      1416.7891      2423.5653     -1528.6988      72.490932      1.152585       51313.104    
  25640000   181.89431      1130.381      -1407.5194      1715.9199      1423.1175      2436.4757     -1530.9146      71.777763      1.1505958      51401.816    
  25660000   176.98078      1086.8945     -1431.2         1740.8157      1418.1734      2454.858      -1585.3218      67.723099      1.1507131      51396.576    
  25680000   182.38771      1167.4613     -1413.6325      1701.6612      1434.6758      2483.8985     -1532.4107      71.185033      1.147291       51549.881    
  25700000   180.70396      1167.3823     -1417.7744      1751.0507      1410.1616      2465.7911     -1535.4466      71.631961      1.1525573      51314.337    
  25720000   179.14285      1119.7533     -1390.4834      1720.7506      1367.4335      2463.1258     -1536.362       73.908408      1.1502457      51417.462    
  25740000   180.57009      1136.2987     -1392.9916      1708.309       1419.4689      2423.1133     -1518.9194      75.822925      1.1498665      51434.42     
  25760000   180.1567       1114.2288     -1364.6808      1713.6229      1434.3385      2489.5214     -1653.5415      73.02748       1.1493851      51455.963    
  25780000   178.43082      1170.4685     -1397.2816      1709.5363      1408.3985      2454.0395     -1500.9473      74.94382       1.1525943      51312.691    
  25800000   176.17265      1192.0488     -1390.1445      1726.2661      1405.0929      2447.9457     -1491.485       72.549676      1.1473195      51548.601    
  25820000   179.32197      1184.7989     -1368.8583      1713.1036      1460.6538      2467.3464     -1582.9972      73.816023      1.1456426      51624.052    
  25840000   183.57854      1154.8906     -1417.005       1711.9793      1403.2847      2483.108      -1524.9663      76.770377      1.1474132      51544.393    
  25860000   177.00082      1108.803      -1411.7851      1721.3354      1403.5603      2430.9211     -1528.391       71.531112      1.1477249      51530.394    
  25880000   179.51909      1183.1562     -1376.7257      1704.2653      1444.0845      2478.7813     -1558.7672      69.770557      1.1493836      51456.028    
  25900000   184.1758       1124.0706     -1403.944       1720.8139      1412.3634      2447.7278     -1549.7157      74.965598      1.1526103      51311.977    
  25920000   180.97338      1126.8437     -1410.5697      1726.1029      1418.7202      2462.0281     -1563.9223      72.990981      1.1485143      51494.975    
  25940000   175.06524      1067.3914     -1405.4796      1719.4246      1413.7478      2352.2547     -1512.7442      78.605375      1.1523903      51321.774    
  25960000   177.47443      1095.8123     -1405.2644      1696.7015      1432.414       2447.2764     -1570.722       73.719158      1.1451717      51645.284    
  25980000   182.63389      1141.6941     -1382.0646      1717.0252      1421.8901      2440.2561     -1552.2063      75.017405      1.1473611      51546.733    
  26000000   181.14457      1123.3101     -1404.2312      1714.9725      1398.9344      2391.4553     -1475.8017      75.980492      1.1544414      51230.592    
  26020000   184.14963      1159.5563     -1371.2357      1719.3656      1419.3618      2451.2655     -1554.6347      73.365859      1.1488092      51481.758    
  26040000   182.5644       1073.4995     -1414.26        1714.2521      1359.5877      2436.0965     -1518.792       74.555419      1.1491865      51464.852    
  26060000   177.47417      1112.3328     -1419.5878      1714.0899      1392.6777      2465.5462     -1538.4779      76.453804      1.1491647      51465.829    
  26080000   182.92046      1110.4891     -1402.2222      1711.7163      1425.609       2429.1223     -1546.6268      71.126132      1.1456899      51621.922    
  26100000   178.28925      1136.9992     -1417.3008      1722.3328      1410.4066      2476.5223     -1549.2757      72.606644      1.1446457      51669.013    
  26120000   181.91746      1092.3923     -1398.4744      1723.4874      1405.8467      2455.8176     -1584.0448      67.888556      1.1453825      51635.778    
  26140000   182.12001      1061.5141     -1383.5483      1723.4398      1383.8174      2410.0897     -1559.1781      64.735005      1.1499586      51430.298    
  26160000   178.57469      1115.9268     -1391.5241      1706.588       1383.6796      2459.9111     -1539.7069      75.042132      1.1479697      51519.406    
  26180000   178.50453      1164.2682     -1399.9155      1705.0499      1459.3683      2432.426      -1527.3673      72.883162      1.1521064      51334.423    
  26200000   179.41247      1076.1857     -1443.1487      1722.1463      1405.3555      2494.4584     -1594.3859      69.700165      1.1487708      51483.478    
  26220000   180.09629      1110.7432     -1384.0387      1726.2384      1361.8272      2396.9235     -1486.4475      74.441907      1.1490347      51471.653    
  26240000   181.18929      1086.2252     -1360.6727      1725.2816      1413.7738      2377.3184     -1562.9116      72.017051      1.146978       51563.949    
  26260000   179.35065      1196.6975     -1402.226       1716.8822      1442.4548      2477.1859     -1531.5698      71.985341      1.1472673      51550.948    
  26280000   180.85347      1060.69       -1428.8764      1700.6308      1380.6502      2408.5334     -1496.1668      73.769408      1.1511836      51375.571    
  26300000   179.82236      1180.5546     -1392.0253      1707.2104      1416.8014      2472.4838     -1517.5985      71.867754      1.1484547      51497.648    
  26320000   175.35946      1062.9132     -1399.9427      1712.7994      1377.1831      2406.8107     -1523.6168      68.021312      1.1511413      51377.458    
  26340000   176.63071      1115.3136     -1366.2079      1726.5129      1400.2217      2441.6962     -1577.7053      68.875595      1.1514219      51364.94     
  26360000   180.2444       1205.7094     -1354.5641      1718.7526      1470.9799      2410.6661     -1535.5816      73.962306      1.1498506      51435.13     
  26380000   182.9535       1129.7287     -1396.8487      1722.3734      1393.8676      2439.0434     -1527.3309      76.872695      1.1495406      51449.003    
  26400000   174.80427      1160.2686     -1400.9139      1697.8955      1427.5211      2485.4636     -1541.2408      69.411617      1.1465028      51585.32     
  26400104   181.13759      1112.5168     -1390.8986      1714.0397      1408.4924      2451.9207     -1563.6208      70.691396      1.1498787      51433.872    
Loop time of 3863.72 on 24 procs for 1200000 steps with 5001 atoms

Performance: 6.709 ns/day, 3.578 hours/ns, 310.582 timesteps/s, 1.553 Matom-step/s
99.5% CPU use with 24 MPI tasks x no OpenMP threads

MPI task timing breakdown:
Section |  min time  |  avg time  |  max time  |%varavg| %total
---------------------------------------------------------------
Pair    | 1890.3     | 2222.6     | 2545.4     | 392.9 | 57.53
Bond    | 500.85     | 599.03     | 670.16     | 175.3 | 15.50
Kspace  | 467.42     | 853.5      | 1259.2     | 715.6 | 22.09
Neigh   | 14.343     | 14.36      | 14.37      |   0.2 |  0.37
Comm    | 126.67     | 128.73     | 131.97     |  12.4 |  3.33
Output  | 0.0047199  | 0.0050422  | 0.011834   |   2.0 |  0.00
Modify  | 31.091     | 33.148     | 34.585     |  18.3 |  0.86
Other   |            | 12.33      |            |       |  0.32

Nlocal:        208.375 ave         226 max         188 min
Histogram: 2 1 1 2 3 4 4 5 1 1
Nghost:        4814.38 ave        4847 max        4783 min
Histogram: 3 4 2 1 0 5 3 1 1 4
Neighs:        73194.1 ave       82068 max       60470 min
Histogram: 2 0 2 3 3 2 1 5 3 3

Total # of neighbors = 1756659
Ave neighs/atom = 351.26155
Ave special neighs/atom = 5.6904619
Neighbor list builds = 4987
Dangerous builds = 0
