LAMMPS data file via write_data, version 22 Dec 2022, timestep = 300000

5001 atoms
9 atom types
5226 bonds
15 bond types
9006 angles
28 angle types
12522 dihedrals
41 dihedral types
4266 impropers
22 improper types

5.675674637766271 45.167139942221525 xlo xhi
5.675674637766271 45.167139942221525 ylo yhi
5.675674637766271 45.167139942221525 zlo zhi

Masses

1 12.01115
2 12.01115
3 12.01115
4 12.01115
5 1.00797
6 1.00797
7 15.9994
8 15.9994
9 15.9994

Pair Coeffs # lj/class2/coul/long

1 0.054 4.01
2 0.054 4.01
3 0.054 4.01
4 0.064 4.01
5 0.02 2.995
6 0.02 2.995
7 0.24 3.535
8 0.24 3.535
9 0.24 3.535

Bond Coeffs # class2

1 1.53 299.67 -501.77 679.81
2 1.53 299.67 -501.77 679.81
3 1.53 299.67 -501.77 679.81
4 1.101 345 -691.89 844.6
5 1.42 400.395 -835.195 1313.01
6 1.42 400.395 -835.195 1313.01
7 1.42 400.395 -835.195 1313.01
8 1.101 345 -691.89 844.6
9 1.42 400.395 -835.195 1313.01
10 1.101 345 -691.89 844.6
11 1.42 400.395 -835.195 1313.01
12 1.417 470.836 -627.618 1327.63
13 1.0982 372.825 -803.453 894.317
14 1.3768 428.88 -738.235 1114.97
15 0.96 493.848 0 0

Angle Coeffs # class2

1 112.67 39.516 -7.443 -9.5583
2 110.77 41.453 -10.604 5.129
3 111.27 54.5381 -8.3642 -13.0838
4 112.67 39.516 -7.443 -9.5583
5 110.77 41.453 -10.604 5.129
6 111.27 54.5381 -8.3642 -13.0838
7 112.67 39.516 -7.443 -9.5583
8 110.77 41.453 -10.604 5.129
9 111.27 54.5381 -8.3642 -13.0838
10 104.5 35.7454 -10.0067 -6.2729
11 104.5 35.7454 -10.0067 -6.2729
12 102.969 38.9739 -6.2595 -8.171
13 109 58.5 0 0
14 110.77 41.453 -10.604 5.129
15 111.27 54.5381 -8.3642 -13.0838
16 111.27 54.5381 -8.3642 -13.0838
17 110.77 41.453 -10.604 5.129
18 111.27 54.5381 -8.3642 -13.0838
19 111.27 54.5381 -8.3642 -13.0838
20 118.9 61.0226 -34.9931 0
21 117.94 35.1558 -12.4682 0
22 123.42 73.6781 -21.6787 0
23 107.66 39.641 -12.921 -2.4318
24 108.728 58.5446 -10.8088 -12.4006
25 108.728 58.5446 -10.8088 -12.4006
26 108.728 58.5446 -10.8088 -12.4006
27 108.728 58.5446 -10.8088 -12.4006
28 108.728 58.5446 -10.8088 -12.4006

BondBond Coeffs

1 0 1.53 1.53
2 3.3872 1.53 1.101
3 11.4318 1.53 1.42
4 0 1.53 1.53
5 3.3872 1.53 1.101
6 11.4318 1.53 1.42
7 0 1.53 1.53
8 3.3872 1.53 1.101
9 11.4318 1.53 1.42
10 -7.1131 1.42 1.42
11 -7.1131 1.42 1.42
12 0 1.42 1.3768
13 0 1.42 0.96
14 3.3872 1.53 1.101
15 11.4318 1.53 1.42
16 11.4318 1.53 1.42
17 3.3872 1.53 1.101
18 11.4318 1.53 1.42
19 11.4318 1.53 1.42
20 68.2856 1.417 1.417
21 1.0795 1.417 1.0982
22 48.4754 1.417 1.3768
23 5.3316 1.101 1.101
24 23.1979 1.101 1.42
25 23.1979 1.101 1.42
26 23.1979 1.101 1.42
27 23.1979 1.101 1.42
28 23.1979 1.101 1.42

BondAngle Coeffs

1 8.016 8.016 1.53 1.53
2 20.754 11.421 1.53 1.101
3 20.4033 2.6868 1.53 1.42
4 8.016 8.016 1.53 1.53
5 20.754 11.421 1.53 1.101
6 20.4033 2.6868 1.53 1.42
7 8.016 8.016 1.53 1.53
8 20.754 11.421 1.53 1.101
9 2.6868 20.4033 1.53 1.42
10 -2.8112 -2.8112 1.42 1.42
11 -2.8112 -2.8112 1.42 1.42
12 0 0 1.42 1.3768
13 0 0 1.42 0.96
14 11.421 20.754 1.53 1.101
15 20.4033 2.6868 1.53 1.42
16 20.4033 2.6868 1.53 1.42
17 11.421 20.754 1.53 1.101
18 2.6868 20.4033 1.53 1.42
19 20.4033 2.6868 1.53 1.42
20 28.8708 28.8708 1.417 1.417
21 20.0033 24.2183 1.417 1.0982
22 58.479 107.681 1.417 1.3768
23 18.103 18.103 1.101 1.101
24 4.6189 55.327 1.101 1.42
25 55.327 4.6189 1.101 1.42
26 4.6189 55.327 1.101 1.42
27 55.327 4.6189 1.101 1.42
28 4.6189 55.327 1.101 1.42

Dihedral Coeffs # class2

1 0 0 0.0316 0 -0.1681 0
2 0.7137 0 0.266 0 -0.2545 0
3 -0.5203 0 -0.3028 0 -0.345 0
4 0 0 0 0 0.13 180
5 0 0 0.0316 0 -0.1681 0
6 0.7137 0 0.266 0 -0.2545 0
7 0.7137 0 0.266 0 -0.2545 0
8 -0.5203 0 -0.3028 0 -0.345 0
9 0 0 0.0316 0 -0.1681 0
10 0.7137 0 0.266 0 -0.2545 0
11 0.7137 0 0.266 0 -0.2545 0
12 -0.5203 0 -0.3028 0 -0.345 0
13 0.5302 0 0 0 -0.3966 0
14 0.5302 0 0 0 -0.3966 0
15 0 0 1.5 0 0 0
16 -0.5203 0 -0.3028 0 -0.345 0
17 0 0 0 0 0.13 180
18 0 0 0 0 0.13 180
19 0.5302 0 0 0 -0.3966 0
20 0 0 0 0 0.13 180
21 0.5302 0 0 0 -0.3966 0
22 8.3667 0 1.1932 0 0 0
23 0 0 3.9661 0 0 0
24 0 0 4.8498 0 0 0
25 0.9513 0 0.1155 0 0.072 0
26 0 0 0 0 0.13 180
27 -0.1432 0 0.0617 0 -0.1083 0
28 -0.1435 0 0.253 0 -0.0905 0
29 -0.1432 0 0.0617 0 -0.1083 0
30 -0.1435 0 0.253 0 -0.0905 0
31 -0.1432 0 0.0617 0 -0.1083 0
32 -0.1435 0 0.253 0 -0.0905 0
33 -0.1435 0 0.253 0 -0.0905 0
34 -0.1435 0 0.253 0 -0.0905 0
35 -0.1435 0 0.253 0 -0.0905 0
36 -0.1435 0 0.253 0 -0.0905 0
37 0 0 1.8769 0 0 0
38 0 0 1.7234 0 0 0
39 -0.182 0 -0.1084 0 -0.7047 0
40 -0.182 0 -0.1084 0 -0.7047 0
41 -0.182 0 -0.1084 0 -0.7047 0

AngleAngleTorsion Coeffs

1 -16.164 112.67 110.77
2 -29.042 112.67 111.27
3 -19.0059 111.27 104.5
4 0 111.27 102.969
5 -16.164 112.67 110.77
6 -29.042 112.67 111.27
7 -29.042 112.67 111.27
8 -19.0059 111.27 104.5
9 -16.164 112.67 110.77
10 -29.042 112.67 111.27
11 -29.042 112.67 111.27
12 -19.0059 111.27 104.5
13 -16.4438 104.5 108.728
14 -16.4438 104.5 108.728
15 0 102.969 123.42
16 -19.0059 111.27 104.5
17 0 111.27 102.969
18 0 111.27 109
19 -16.4438 104.5 108.728
20 0 111.27 102.969
21 -16.4438 104.5 108.728
22 0 118.9 118.9
23 -4.8141 118.9 117.94
24 -21.0247 118.9 123.42
25 0 102.969 108.728
26 0 109 108.728
27 -12.564 110.77 110.77
28 -20.2006 110.77 111.27
29 -12.564 110.77 110.77
30 -20.2006 110.77 111.27
31 -12.564 110.77 110.77
32 -20.2006 110.77 111.27
33 -20.2006 110.77 111.27
34 -20.2006 110.77 111.27
35 -20.2006 110.77 111.27
36 -20.2006 110.77 111.27
37 0.3598 117.94 117.94
38 4.2296 117.94 123.42
39 -14.0484 111.27 111.27
40 -14.0484 111.27 111.27
41 -14.0484 111.27 111.27

EndBondTorsion Coeffs

1 0.2486 0.2422 -0.0925 0.0814 0.0591 0.2219 1.53 1.101
2 1.1538 0.8409 -0.9138 -0.319 0.4411 -0.7174 1.53 1.42
3 -0.2456 1.0517 -0.7795 0.4741 1.2635 0.5576 1.53 1.42
4 0 0 0 0 0 0 1.53 1.3768
5 0.2486 0.2422 -0.0925 0.0814 0.0591 0.2219 1.53 1.101
6 1.1538 0.8409 -0.9138 -0.319 0.4411 -0.7174 1.53 1.42
7 -0.319 0.4411 -0.7174 1.1538 0.8409 -0.9138 1.53 1.42
8 0.4741 1.2635 0.5576 -0.2456 1.0517 -0.7795 1.53 1.42
9 0.2486 0.2422 -0.0925 0.0814 0.0591 0.2219 1.53 1.101
10 -0.319 0.4411 -0.7174 1.1538 0.8409 -0.9138 1.53 1.42
11 1.1538 0.8409 -0.9138 -0.319 0.4411 -0.7174 1.53 1.42
12 -0.2456 1.0517 -0.7795 0.4741 1.2635 0.5576 1.53 1.42
13 -0.162 0.1564 -1.1408 -0.6054 1.3339 0.9648 1.42 1.101
14 -0.162 0.1564 -1.1408 -0.6054 1.3339 0.9648 1.42 1.101
15 0 0 0 0 0 0 1.42 1.417
16 0.4741 1.2635 0.5576 -0.2456 1.0517 -0.7795 1.53 1.42
17 0 0 0 0 0 0 1.53 1.3768
18 0 0 0 0 0 0 1.53 0.96
19 -0.6054 1.3339 0.9648 -0.162 0.1564 -1.1408 1.42 1.101
20 0 0 0 0 0 0 1.53 1.3768
21 -0.6054 1.3339 0.9648 -0.162 0.1564 -1.1408 1.42 1.101
22 -0.1185 6.3204 0 -0.1185 6.3204 0 1.417 1.417
23 0 -6.8958 0 0 -0.4669 0 1.417 1.0982
24 0 0.2655 0 0 4.8905 0 1.417 1.3768
25 0 0 0 0 0 0 1.3768 1.101
26 0 0 0 0 0 0 0.96 1.101
27 0.213 0.312 0.0777 0.213 0.312 0.0777 1.101 1.101
28 0.5903 0.6669 0.8584 0.9681 0.9551 0.0436 1.101 1.42
29 0.213 0.312 0.0777 0.213 0.312 0.0777 1.101 1.101
30 0.5903 0.6669 0.8584 0.9681 0.9551 0.0436 1.101 1.42
31 0.213 0.312 0.0777 0.213 0.312 0.0777 1.101 1.101
32 0.9681 0.9551 0.0436 0.5903 0.6669 0.8584 1.101 1.42
33 0.5903 0.6669 0.8584 0.9681 0.9551 0.0436 1.101 1.42
34 0.9681 0.9551 0.0436 0.5903 0.6669 0.8584 1.101 1.42
35 0.9681 0.9551 0.0436 0.5903 0.6669 0.8584 1.101 1.42
36 0.5903 0.6669 0.8584 0.9681 0.9551 0.0436 1.101 1.42
37 0 -0.689 0 0 -0.689 0 1.0982 1.0982
38 0 4.2641 0 0 -1.5867 0 1.0982 1.3768
39 1.0165 0.7553 -0.4609 1.0165 0.7553 -0.4609 1.42 1.42
40 1.0165 0.7553 -0.4609 1.0165 0.7553 -0.4609 1.42 1.42
41 1.0165 0.7553 -0.4609 1.0165 0.7553 -0.4609 1.42 1.42

MiddleBondTorsion Coeffs

1 -14.879 -3.6581 -0.3138 1.53
2 -21.8842 -7.6764 -0.6868 1.53
3 -5.9288 -2.7007 -0.3175 1.42
4 0 0 0 1.42
5 -14.879 -3.6581 -0.3138 1.53
6 -21.8842 -7.6764 -0.6868 1.53
7 -21.8842 -7.6764 -0.6868 1.53
8 -5.9288 -2.7007 -0.3175 1.42
9 -14.879 -3.6581 -0.3138 1.53
10 -21.8842 -7.6764 -0.6868 1.53
11 -21.8842 -7.6764 -0.6868 1.53
12 -5.9288 -2.7007 -0.3175 1.42
13 -6.8007 -4.6546 -1.4101 1.42
14 -6.8007 -4.6546 -1.4101 1.42
15 0 0 0 1.3768
16 -5.9288 -2.7007 -0.3175 1.42
17 0 0 0 1.42
18 0 0 0 1.42
19 -6.8007 -4.6546 -1.4101 1.42
20 0 0 0 1.42
21 -6.8007 -4.6546 -1.4101 1.42
22 27.5989 -2.312 0 1.417
23 0 -1.1521 0 1.417
24 0 4.8255 0 1.417
25 0 0 0 1.42
26 0 0 0 1.42
27 -14.261 -0.5322 -0.4864 1.53
28 -16.7975 -1.2296 -0.275 1.53
29 -14.261 -0.5322 -0.4864 1.53
30 -16.7975 -1.2296 -0.275 1.53
31 -14.261 -0.5322 -0.4864 1.53
32 -16.7975 -1.2296 -0.275 1.53
33 -16.7975 -1.2296 -0.275 1.53
34 -16.7975 -1.2296 -0.275 1.53
35 -16.7975 -1.2296 -0.275 1.53
36 -16.7975 -1.2296 -0.275 1.53
37 0 4.8228 0 1.417
38 0 5.5432 0 1.417
39 -17.2585 -3.6157 -0.8364 1.53
40 -17.2585 -3.6157 -0.8364 1.53
41 -17.2585 -3.6157 -0.8364 1.53

BondBond13 Coeffs

1 0 1.53 1.101
2 0 1.53 1.42
3 0 1.53 1.42
4 0 1.53 1.3768
5 0 1.53 1.101
6 0 1.53 1.42
7 0 1.53 1.42
8 0 1.53 1.42
9 0 1.53 1.101
10 0 1.53 1.42
11 0 1.53 1.42
12 0 1.53 1.42
13 0 1.42 1.101
14 0 1.42 1.101
15 0 1.42 1.417
16 0 1.53 1.42
17 0 1.53 1.3768
18 0 1.53 0.96
19 0 1.42 1.101
20 0 1.53 1.3768
21 0 1.42 1.101
22 53 1.417 1.417
23 -6.2741 1.417 1.0982
24 -2.2436 1.417 1.3768
25 0 1.3768 1.101
26 0 0.96 1.101
27 0 1.101 1.101
28 0 1.101 1.42
29 0 1.101 1.101
30 0 1.101 1.42
31 0 1.101 1.101
32 0 1.101 1.42
33 0 1.101 1.42
34 0 1.101 1.42
35 0 1.101 1.42
36 0 1.101 1.42
37 -1.7077 1.0982 1.0982
38 2.0517 1.0982 1.3768
39 0 1.42 1.42
40 0 1.42 1.42
41 0 1.42 1.42

AngleTorsion Coeffs

1 -0.2454 0 -0.1136 0.3113 0.4516 -0.1988 112.67 110.77
2 0.9672 -0.7566 -1.2331 0.5623 -0.3041 -0.4015 112.67 111.27
3 -2.7466 1.4877 -0.8955 0.5676 0.945 0.0703 111.27 104.5
4 0 0 0 0 0 0 111.27 102.969
5 -0.2454 0 -0.1136 0.3113 0.4516 -0.1988 112.67 110.77
6 0.9672 -0.7566 -1.2331 0.5623 -0.3041 -0.4015 112.67 111.27
7 0.5623 -0.3041 -0.4015 0.9672 -0.7566 -1.2331 112.67 111.27
8 0.5676 0.945 0.0703 -2.7466 1.4877 -0.8955 111.27 104.5
9 -0.2454 0 -0.1136 0.3113 0.4516 -0.1988 112.67 110.77
10 0.5623 -0.3041 -0.4015 0.9672 -0.7566 -1.2331 112.67 111.27
11 0.9672 -0.7566 -1.2331 0.5623 -0.3041 -0.4015 112.67 111.27
12 -2.7466 1.4877 -0.8955 0.5676 0.945 0.0703 111.27 104.5
13 -0.7777 0.434 -0.6653 -1.8234 1.6393 0.5144 104.5 108.728
14 -0.7777 0.434 -0.6653 -1.8234 1.6393 0.5144 104.5 108.728
15 0 0 0 0 0 0 102.969 123.42
16 0.5676 0.945 0.0703 -2.7466 1.4877 -0.8955 111.27 104.5
17 0 0 0 0 0 0 111.27 102.969
18 0 0 0 0 0 0 111.27 109
19 -1.8234 1.6393 0.5144 -0.7777 0.434 -0.6653 104.5 108.728
20 0 0 0 0 0 0 111.27 102.969
21 -1.8234 1.6393 0.5144 -0.7777 0.434 -0.6653 104.5 108.728
22 1.9767 1.0239 0 1.9767 1.0239 0 118.9 118.9
23 0 2.5014 0 0 2.7147 0 118.9 117.94
24 0 10.0155 0 0 1.7404 0 118.9 123.42
25 0 0 0 0 0 0 102.969 108.728
26 0 0 0 0 0 0 109 108.728
27 -0.8085 0.5569 -0.2466 -0.8085 0.5569 -0.2466 110.77 110.77
28 -0.1892 0.4918 0.7273 2.3668 2.492 -1.0122 110.77 111.27
29 -0.8085 0.5569 -0.2466 -0.8085 0.5569 -0.2466 110.77 110.77
30 -0.1892 0.4918 0.7273 2.3668 2.492 -1.0122 110.77 111.27
31 -0.8085 0.5569 -0.2466 -0.8085 0.5569 -0.2466 110.77 110.77
32 2.3668 2.492 -1.0122 -0.1892 0.4918 0.7273 110.77 111.27
33 -0.1892 0.4918 0.7273 2.3668 2.492 -1.0122 110.77 111.27
34 2.3668 2.492 -1.0122 -0.1892 0.4918 0.7273 110.77 111.27
35 2.3668 2.492 -1.0122 -0.1892 0.4918 0.7273 110.77 111.27
36 -0.1892 0.4918 0.7273 2.3668 2.492 -1.0122 110.77 111.27
37 0 2.4501 0 0 2.4501 0 117.94 117.94
38 0 2.5706 0 0 1.8729 0 117.94 123.42
39 0.5511 0.9737 -0.6673 0.5511 0.9737 -0.6673 111.27 111.27
40 0.5511 0.9737 -0.6673 0.5511 0.9737 -0.6673 111.27 111.27
41 0.5511 0.9737 -0.6673 0.5511 0.9737 -0.6673 111.27 111.27

Improper Coeffs # class2

1 0 0
2 0 0
3 0 0
4 0 0
5 0 0
6 0 0
7 0 0
8 0 0
9 0 0
10 0 0
11 0 0
12 0 0
13 0 0
14 0 0
15 0 0
16 0 0
17 0 0
18 0 0
19 0 0
20 0 0
21 4.8912 0
22 13.0421 0

AngleAngle Coeffs

1 -1.3199 -1.3199 0.1184 112.67 110.77 110.77
2 0.2738 -0.4825 0.2738 110.77 110.77 107.66
3 0 0 0.1689 110.77 111.27 108.728
4 0.1689 0 0 111.27 110.77 108.728
5 0 -0.4825 0 110.77 110.77 107.66
6 0 0 0 110.77 111.27 108.728
7 0 2.5926 0 110.77 111.27 108.728
8 0 0 0 111.27 110.77 108.728
9 0 -0.4825 0 110.77 110.77 107.66
10 0 0 0 110.77 111.27 108.728
11 0 2.5926 3.9177 111.27 110.77 108.728
12 2.4259 2.4259 2.1283 107.66 108.728 108.728
13 0 0 2.1283 107.66 108.728 108.728
14 2.4259 2.4259 2.1283 107.66 108.728 108.728
15 -1.3199 -1.3199 0.1184 112.67 110.77 110.77
16 0 0 -3.5744 112.67 111.27 111.27
17 0.1689 0 0 111.27 110.77 108.728
18 -1.3199 -1.3199 0.1184 112.67 110.77 110.77
19 -0.833 -0.833 -3.5744 112.67 111.27 111.27
20 0.1689 2.5926 3.9177 111.27 110.77 108.728
21 0 0 0 118.9 117.94 117.94
22 0 0 0 118.9 123.42 123.42

Atoms # full

390 10 4 -0.1268 7.575568491710597 11.994013996844634 8.848323639371444 0 8 -3
382 10 6 0.053 7.600170786398307 8.872799683420588 9.460478701909848 0 8 -3
379 10 4 0.0265 8.452291761432285 11.01643575163721 9.220525595539186 0 8 -3
381 10 1 0.027 8.205735882010352 9.067949218832247 10.316436640180836 0 8 -3
383 10 6 0.053 9.321437390171338 8.74176143191261 10.27821930637884 0 8 -3
394 10 4 -0.1268 8.88835689198682 12.529137881374307 6.702996086712465 0 8 -3
386 10 1 0.027 8.242555529463102 8.68640896567054 12.799931839857528 0 8 -3
380 10 8 -0.1595 8.375042300871124 10.465821459942067 10.530162351312018 0 8 -3
388 10 6 0.053 9.3101452552755 8.341521171486054 12.397403072458289 0 8 -3
389 10 8 -0.266 8.263475848105935 10.003489190256893 13.390961874128816 0 8 -3
3832 10 6 0.053 10.99936907752289 9.9428953749597 13.757004994511913 0 8 -2
398 10 4 -0.1268 9.497108635347107 10.84800985301273 8.388907392020037 0 8 -3
396 10 4 -0.1268 9.848721015270371 11.666160293497189 7.241485767405335 0 8 -3
3829 10 6 0.053 6.57526741189667 9.354095413466654 11.58117693495236 0 8 -2
384 10 2 0.08 7.363769621933111 8.601905961804725 11.561635928899797 0 8 -3
399 10 6 0.1268 10.16546399453739 10.050506011419165 8.640705562564364 0 8 -3
4337 10 8 -0.266 6.963655644847301 7.261591507762545 11.311864179089884 0 8 -2
3830 10 1 0.027 10.504827610573733 10.7065560104439 14.465489089991486 0 8 -2
387 10 6 0.053 7.966452761241667 7.9389495547059274 13.466415383391315 0 8 -3
3831 10 6 0.053 10.635641505009437 11.695929309102958 13.86458825766855 0 8 -2
397 10 6 0.1268 10.80211041269061 11.503829883676296 6.7484692730782125 0 8 -3
391 10 6 0.1268 6.878672263572436 12.357352850180032 9.586060087807358 0 8 -3
392 10 4 -0.1268 7.763990694893188 12.721049220245849 7.640335352954343 0 8 -3
3828 10 2 0.08 8.978613390859692 10.298862693209074 14.640833288879714 0 8 -2
3884 1 4 -0.1268 10.407635198220039 6.5354654066496325 14.459813861974105 1 7 -2
4846 1 6 0.1268 14.938564033151824 15.701077253439523 6.240942411418166 1 8 -2
3874 1 6 0.053 12.069246892315215 9.200229999446535 11.670928145685146 1 7 -2
3866 1 8 -0.1595 12.330812010809204 8.00061625006943 14.05789331078883 1 7 -2
3865 1 4 0.0265 11.633135456552989 7.073201910273423 14.81284729388065 1 7 -2
393 10 6 0.1268 6.9880770001012555 13.341210706291228 7.215077344698427 0 8 -3
3294 4 4 -0.1268 8.793414567732416 6.498200944382728 7.207737020033848 0 8 -2
3295 4 6 0.1268 8.516821810704624 7.410123934769004 7.695001079240797 0 8 -2
3296 4 4 -0.1268 9.193474909924667 6.302132493062843 5.880013825245039 0 8 -2
2812 13 6 0.1268 24.013323379910496 6.304200514776494 5.722967510993102 1 8 -3
1592 8 6 0.1268 14.498498628281078 13.799393280447182 11.631635484152921 0 7 -2
88 1 6 0.053 14.762317294759974 7.2430212618167245 8.768690137855069 1 7 -2
89 1 6 0.053 13.98394330798063 8.193259782605956 7.520034015069352 1 7 -2
87 1 1 0.027 14.754709698219383 8.234480345664199 8.298983628330395 1 7 -2
3873 1 6 0.053 13.780371036711426 9.73148586251061 11.769637303551058 1 7 -2
93 1 6 0.053 13.201143905221796 11.315467527631428 8.98251794726968 1 7 -2
94 1 6 0.053 13.82033914686049 10.528150483964001 7.578156916918042 1 7 -2
4837 1 2 0.08 15.926700043968365 11.867420778979977 7.362779285203472 1 8 -2
4838 1 6 0.053 15.160858033580668 9.619363160291979 10.00454819228155 1 8 -2
4839 1 6 0.053 15.79621685640843 11.081397121268425 6.530645195622962 1 8 -2
4834 1 1 0.027 17.390135986435048 11.967137250729575 7.6962892447261195 1 8 -2
95 1 8 -0.266 15.396705113199616 11.456766701722682 8.657631105803928 1 7 -2
90 1 2 0.08 14.33705143654833 9.376816511703717 9.30505266147062 1 7 -2
92 1 1 0.027 14.129201713222503 10.729865015361474 8.627847095079991 1 7 -2
86 1 8 -0.1595 16.004878592999976 8.56207587118202 7.779960126682564 1 7 -2
3875 1 8 -0.266 13.058984081160126 9.106294865983164 9.833625084130393 1 7 -2
3872 1 1 0.027 13.074726301224818 9.030783216594301 11.280279844292421 1 7 -2
4836 1 6 0.053 17.69535188549883 11.129453672934048 8.321041917960258 1 8 -2
85 1 4 0.0265 17.055749048214146 7.656754857320031 8.05411207332223 1 7 -2
3128 10 4 -0.1268 15.505531395151502 10.957556147016255 13.322775652124257 1 8 -2
96 1 4 -0.1268 18.10788751648242 7.4679423603388715 7.189300595521145 1 7 -2
3126 10 4 -0.1268 16.39833489461515 10.372368092613858 12.440220539657917 1 8 -2
97 1 6 0.1268 18.05833545253973 7.866529687122812 6.165886400352472 1 7 -2
3129 10 6 0.1268 14.78682214811603 11.748312166255138 13.08163937478026 1 8 -2
3127 10 6 0.1268 16.410330283012662 10.956401144824792 11.544445684252707 1 8 -2
3867 1 1 0.027 13.445958867679947 7.439810109878843 13.379029930379357 1 7 -2
3124 10 4 -0.1268 17.19207277347234 9.319381152198565 12.933033199474245 1 8 -2
3868 1 6 0.053 14.407272584353633 7.82597197054761 13.824289043722402 1 7 -2
3870 1 2 0.08 13.445362568218577 7.686497598224628 11.84965711620214 1 7 -2
3125 10 6 0.1268 17.920971060455756 8.88479315755727 12.231720033419286 1 8 -2
91 1 6 0.053 14.333880687062685 7.2389446330684475 11.444722490171426 1 7 -2
104 1 4 -0.1268 17.18464839020981 7.093044156878883 9.315461166660928 1 7 -2
105 1 6 0.1268 16.400417102897975 7.262692695951958 10.06841805039667 1 7 -2
100 1 4 -0.1268 19.187255419036592 5.959253939144588 8.68656733028709 1 7 -2
3109 10 4 0.0265 15.439061662691595 10.462664806722248 14.623586413511024 1 8 -2
3122 10 4 -0.1268 17.138478059223914 8.82541804445423 14.204843572093534 1 8 -2
3869 1 6 0.053 13.503492064295095 6.354537210696821 13.605174875128899 1 7 -2
4442 1 8 -0.266 12.305748853447428 6.896309704348754 11.415143982785192 1 8 -2
98 1 4 -0.1268 19.18236681614237 6.693448267579235 7.509143392655714 1 7 -2
102 1 4 -0.1268 18.222444654641322 6.226471234034333 9.700255851941055 1 7 -2
4335 10 6 0.053 5.740426774818499 7.176131109996271 12.935097532881127 0 8 -2
3113 10 6 0.053 13.172901140345441 11.670142338462249 14.263643515616156 1 8 -2
4833 1 8 -0.266 18.21904267240796 12.012324571617974 6.586283647879578 1 8 -2
4835 1 6 0.053 17.608249174100827 12.915773190551514 8.418995377586732 1 8 -2
3123 10 6 0.1268 17.695397492206755 7.866561697207427 14.529823835239753 1 8 -2
2305 8 4 -0.1268 7.669202629543921 13.458737269707937 12.149840302480833 1 8 -2
3120 10 4 -0.1268 16.281539051975372 9.489579570235287 15.089244092127391 1 8 -2
859 6 6 0.1268 14.986109725037966 6.724499617522464 5.845307189754961 1 7 -2
395 10 6 0.1268 9.104262404763922 13.154497656291916 5.776294899406351 0 8 -3
4862 1 4 -0.1268 23.53111154569678 8.309507872300657 7.3757564254440435 1 8 -2
4858 1 8 -0.1595 20.450317113526935 10.169252353630393 6.573617220989226 1 8 -2
4866 1 4 -0.1268 24.178993993492035 10.222445528054974 5.991854653277815 1 8 -2
4868 1 4 -0.1268 22.844611813695856 10.59948354281024 5.862893170208997 1 8 -2
1132 7 6 0.1268 21.425410262991996 8.55755734528332 13.45301135757812 0 7 -2
4842 1 6 0.053 16.179835212790866 13.471610799636128 6.016487696814253 1 8 -2
1130 7 6 0.1268 24.070547188577198 8.430399179168273 13.719802557824726 0 7 -2
1131 7 4 -0.1268 21.96480259396834 9.257749637448338 14.145355966880093 0 7 -2
1129 7 4 -0.1268 23.314360981942194 9.033710240233837 14.328199341558978 0 7 -2
1133 7 4 -0.1268 21.24910121578351 10.122830672425536 15.010123794324118 0 7 -2
1127 7 4 -0.1268 24.038093290670908 9.848026627871361 15.242131382203311 0 7 -2
4859 1 4 0.0265 21.83004210384066 9.813381897687087 6.46991195792551 1 8 -2
4864 1 4 -0.1268 24.473302560409966 9.209861180382248 6.846860915891881 1 8 -2
4860 1 4 -0.1268 22.197924165207866 8.628242970179686 7.114504553468421 1 8 -2
4861 1 6 0.1268 21.373665925803387 8.191129138317843 7.672963569778095 1 8 -2
4863 1 6 0.1268 23.774108604025987 7.542932109973339 8.10784400915282 1 8 -2
4607 7 5 0.4241 20.296453655734084 10.643786074529205 9.576059967609861 0 7 -2
4648 7 4 -0.1268 23.429801972756778 13.911169804723269 7.618981106622684 0 7 -2
4606 7 9 -0.5571 20.419475990930344 10.221475495187166 10.425054307058089 0 7 -2
1128 7 6 0.1268 25.10701770520287 9.944383508633587 15.266970463179991 0 7 -2
99 1 6 0.1268 19.901728270158927 6.514101372448666 6.615602739551028 1 7 -2
4428 3 4 -0.1268 24.857463519816655 13.15245001184297 12.364307626701713 0 7 -2
4631 7 4 -0.1268 21.623594998379623 18.149946496081398 9.288143405480412 0 7 -2
3115 10 6 0.053 8.988299996224589 9.31365189541149 15.153067750410967 1 8 -2
1582 8 6 0.053 12.163138230699346 18.769272099629852 10.345803007995755 0 7 -2
4632 7 6 0.1268 22.386817726186127 18.275930761556666 8.405527607091443 0 7 -2
4649 7 6 0.1268 24.21937289271692 13.3510881135163 7.981895930203702 0 7 -2
4626 7 6 0.1268 19.426778087389074 18.68978196764738 12.382507396462 0 7 -2
3111 10 1 0.027 13.534632154834597 11.783567774259698 15.22104740732944 1 8 -2
4610 7 6 0.053 21.53858878772867 10.783604082264555 12.042292659235006 0 7 -2
4609 7 6 0.053 19.936516856389755 10.806523578421574 12.341998498895286 0 7 -2
4608 7 1 0.027 20.53475003494495 11.11584918390559 11.547047307426226 0 7 -2
3110 10 8 -0.1595 14.481249740587291 10.77533760181738 15.522634069667882 1 8 -2
2009 3 4 -0.1268 24.512762712666603 16.45108948798167 13.940887730548582 0 7 -2
2301 8 4 -0.1268 6.139500392017047 15.147318698602293 12.811240235371317 1 8 -2
152 3 6 0.053 6.395953312219059 17.02997613386725 6.134069690246631 0 7 -3
3827 10 6 0.053 7.881202570181151 12.101632348419553 14.76012092480232 0 8 -2
2326 7 4 -0.1268 11.482634936960647 15.769783416302875 15.14257882415472 0 7 -3
2324 7 4 -0.1268 12.40417653130903 16.017176183483826 14.070076251568128 0 7 -3
2327 7 6 0.1268 10.35615493839889 15.420779613382845 14.903938830470542 0 7 -3
4997 5 6 0.1268 23.47580480336108 6.303045188677482 15.067385122254453 0 8 -2
4635 7 1 0.027 22.064714598249623 12.915594781091132 10.422949931153289 0 7 -2
1134 7 6 0.1268 20.168289237482202 10.071307206127438 14.924831572972698 0 7 -2
3825 10 1 0.027 7.944328239419944 11.159439822755981 15.402462885914519 0 8 -2
2291 8 8 -0.1595 6.908105679588738 17.340301134667705 13.405741567648843 1 8 -2
2309 8 4 -0.1268 8.55821671482003 15.659669354698165 12.947705256280079 1 8 -2
1590 8 6 0.1268 12.586689818583 14.528380562771156 10.208657347032077 0 7 -2
1589 8 4 -0.1268 13.366444516795198 15.226715413186493 10.237295114701771 0 7 -2
4291 8 6 0.053 9.226750126502468 17.877347107842912 14.863741212463616 0 7 -2
2295 8 2 0.08 8.709464447507482 18.75915471228546 14.565749869272738 1 8 -2
2293 8 6 0.053 8.56922545095936 18.11249357902461 12.473570807008613 1 8 -2
4625 7 4 -0.1268 19.917171209278294 18.424418364570766 11.445765515369596 0 7 -2
1588 8 6 0.1268 12.402816299173804 16.590754950609682 8.963515879921383 0 7 -2
2290 8 4 0.0265 7.1868381730044835 16.08436486557592 12.95163721814965 1 8 -2
2310 8 6 0.1268 9.388822178996097 16.229054003658987 13.19877540428654 1 8 -2
2292 8 1 0.027 7.855662013632925 18.38984206392576 13.312139852185473 1 8 -2
2307 8 4 -0.1268 8.733580346413175 14.29409196240284 12.557859321533222 1 8 -2
2308 8 6 0.1268 9.814435777162062 13.682026321509879 12.623630505494724 1 8 -2
2325 7 6 0.1268 12.029088855559252 16.013104107360427 13.085167354020609 0 7 -3
4639 7 4 0.0265 22.13091270005975 13.471106572504135 8.025763306532737 0 7 -2
3826 10 6 0.053 6.975450203007421 10.80783633689876 15.373319890264499 0 8 -2
4334 10 1 0.027 5.774354171242517 6.876708356464412 11.956084828580698 0 8 -2
4841 1 6 0.053 15.482509031842355 13.915457699797063 7.51272931984359 1 8 -2
4840 1 1 0.027 15.46445906350008 13.169924331993455 6.749668816406185 1 8 -2
1594 8 6 0.1268 16.48400006970803 15.2804837741787 11.427766729625873 0 7 -2
4646 7 4 -0.1268 23.665388953750334 15.103431135502092 6.853957330340072 0 7 -2
4843 1 8 -0.1595 14.127201326452752 13.11177568460624 6.287010155136444 1 8 -2
1587 8 4 -0.1268 13.379076794876745 16.309871680787868 9.365632764937164 0 7 -2
2306 8 6 0.1268 7.851997756566083 12.390989077830653 11.700867721630448 1 8 -2
4613 7 8 -0.266 20.635056369142276 13.367239168484971 12.3595888775105 0 7 -2
1591 8 4 -0.1268 14.45610435074149 14.813946807828893 10.987404815083348 0 7 -2
2322 7 4 -0.1268 13.802441391457508 16.091738804537506 14.316240794092582 0 7 -3
1577 8 8 -0.1595 14.36780582115101 18.347452638651756 8.65332276412424 0 7 -2
1576 8 4 0.0265 14.519502650519271 17.0812749243287 9.244401867847948 0 7 -2
2007 3 4 -0.1268 25.02737653155499 17.660635446004612 13.457757601771306 0 7 -2
1595 8 4 -0.1268 15.69202507022182 16.600546214898806 9.91042391434462 0 7 -2
2320 7 6 0.053 17.00237383459674 13.457391614688845 14.949561862276822 0 7 -3
1596 8 6 0.1268 16.70673176149252 16.96657098682605 9.917285977250742 0 7 -2
2321 7 8 -0.266 18.30448750886357 15.084170256740865 14.71533963993081 0 7 -3
1593 8 4 -0.1268 15.586308336237812 15.47973146043449 10.769606484101596 0 7 -2
4617 7 2 0.08 19.55330663986447 14.825551919132696 13.961200086727633 0 7 -2
4622 7 6 0.053 18.9535352919209 16.72600319074497 13.204874570189089 0 7 -2
4620 7 1 0.027 19.925615160453816 16.30257398409908 13.472611713834732 0 7 -2
4616 7 6 0.053 18.694761615824937 14.392349755502199 11.890442189117039 0 7 -2
4614 7 1 0.027 19.27510801308454 13.79655398682325 12.669969897525256 0 7 -2
2323 7 6 0.1268 14.551765153798458 16.091945361094982 13.429926782766316 0 7 -3
4615 7 6 0.053 18.709769702646856 12.812363624987412 12.844777673989492 0 7 -2
4612 7 6 0.053 19.85246325152956 12.989836197564165 10.48632007593643 0 7 -2
4641 7 6 0.1268 19.994214512373965 13.978014104695639 7.924155052389519 0 7 -2
4647 7 6 0.1268 24.668453875569394 15.520611385998935 6.700206836831595 0 7 -2
4634 7 6 0.1268 22.217218837140926 16.246027309102487 10.36059624129938 0 7 -2
1888 6 6 0.1268 22.2388575362818 6.105644851275951 12.15770571708914 0 8 -2
4638 7 8 -0.1595 22.054924362023396 12.472174279799457 8.96405329475 0 7 -2
4611 7 2 0.08 20.72500566336457 12.659412195758168 11.12887701665501 0 7 -2
4640 7 4 -0.1268 20.99541773520187 14.19986863280373 7.594732947253295 0 7 -2
4643 7 6 0.1268 20.27754889245991 15.508289795219943 6.0583251551819455 0 7 -2
4644 7 4 -0.1268 22.554501194058343 15.658404953853108 6.203083750422509 0 7 -2
4619 7 6 0.053 20.441361217192338 14.377797368391308 14.530031025138145 0 7 -2
4621 7 6 0.053 20.382557372201795 16.737197717616635 14.378194764086551 0 7 -2
4426 3 4 -0.1268 24.75139590726267 11.747909674025708 12.398950867152958 0 7 -2
4623 7 8 -0.1595 20.830491652845655 16.258345248213676 12.362965714867137 0 7 -2
4624 7 4 0.0265 20.710121274191348 17.237652099953376 11.348008811943501 0 7 -2
4427 3 6 0.1268 23.839708636924943 11.412097314847074 12.858124880521007 0 7 -2
4637 7 6 0.053 22.28325006175752 14.020350019128704 10.702713199760664 0 7 -2
2008 3 6 0.1268 24.87633409151539 17.842865516423416 12.368284552859418 0 7 -2
4642 7 4 -0.1268 21.27020369346271 15.203589681481795 6.57658504173658 0 7 -2
2011 3 4 -0.1268 24.46077865064199 16.16092246579441 15.344588778652858 0 7 -2
4429 3 6 0.1268 24.108679518341035 13.849677302621464 12.763756538357704 0 7 -2
4633 7 4 -0.1268 21.558067131909915 17.133037755178144 10.286876777359257 0 7 -2
4636 7 6 0.053 22.942762893625385 12.463915696624198 10.891733877254737 0 7 -2
2010 3 6 0.1268 23.779145115797867 15.858907556426402 13.280797943217053 0 7 -2
3882 1 4 -0.1268 9.703011268640001 5.726541075288864 15.231450985240915 1 7 -2
2303 8 4 -0.1268 6.383217731167029 13.893073788834087 12.386408645287641 1 8 -2
3885 1 6 0.1268 10.080998424271082 6.739426036418364 13.452762299266848 1 7 -2
4832 1 6 0.053 17.866417332979637 10.078832819727962 6.01750790022312 1 8 -2
4336 10 6 0.053 5.9121453486580595 5.798162161554585 12.059074688003466 0 8 -2
4865 1 6 0.1268 25.39857741153799 8.790245461588917 6.944635234090552 1 8 -2
3112 10 6 0.053 14.060297950353013 12.721469852654458 15.13719155204065 1 8 -2
2318 7 1 0.027 17.901837513922494 13.928776387763055 15.52801482218547 0 7 -3
4845 1 4 -0.1268 14.019247978778994 15.526497377944544 5.7201047132015415 1 8 -2
2319 7 6 0.053 18.619390954903068 13.128369499693815 15.423551690639007 0 7 -3
4645 7 6 0.1268 22.768753067494377 16.590910293431257 5.725473636604633 0 7 -2
4844 1 4 0.0265 13.607582258746323 14.2339502488218 5.682969060995433 1 8 -2
3833 10 8 -0.266 11.185005436105147 10.64416492598351 15.787579974773612 0 8 -2
4006 10 4 -0.1268 10.930459579404182 8.931786054926338 20.83213845430387 1 8 -3
4002 10 4 -0.1268 8.938598453493988 7.827007208351381 19.984877467707243 1 8 -3
4004 10 4 -0.1268 10.030754956844138 8.778797706115121 19.796669595334716 1 8 -3
4005 10 6 0.1268 10.322309077979535 9.207995938952575 18.827589619514093 1 8 -3
3991 10 4 0.0265 8.695453503663689 7.352445626758777 21.241738566241466 1 8 -3
4010 10 4 -0.1268 9.689842453447532 7.497179075143237 22.303608765761577 1 8 -3
4008 10 4 -0.1268 10.786589592435575 8.244342493426748 21.975320771516987 1 8 -3
4007 10 6 0.1268 11.781526618633793 9.62481315325635 20.717005872552836 1 8 -3
4009 10 6 0.1268 11.610183749326684 8.364563435853078 22.649731123736572 1 8 -3
4072 5 6 0.1268 10.475591028955357 11.610454314044883 22.502027632688844 1 7 -3
4071 5 4 -0.1268 10.44698291039839 11.293321603134066 23.561671576812266 1 7 -3
4003 10 6 0.1268 8.097470693035133 7.6434687339025515 19.214406729372936 1 8 -3
3835 10 6 0.1268 6.604767768372699 9.619112937113862 17.43324697290862 0 8 -2
4011 10 6 0.1268 9.377104704820255 7.0492971676637435 23.219339544523155 1 8 -3