LAMMPS (22 Dec 2022)
WARNING: Using I/O redirection is unreliable with parallel runs. Better to use the -in switch to read input files. (../lammps.cpp:531)
Reading data file ...
  orthogonal box = (0 0 0) to (46.346708 46.346708 46.346708)
  1 by 2 by 3 MPI processor grid
  reading atoms ...
  4965 atoms
  scanning bonds ...
  5 = max bonds/atom
  scanning angles ...
  18 = max angles/atom
  scanning dihedrals ...
  46 = max dihedrals/atom
  scanning impropers ...
  16 = max impropers/atom
  reading bonds ...
  5086 bonds
  reading angles ...
  10160 angles
  reading dihedrals ...
  15222 dihedrals
  reading impropers ...
  6604 impropers
Finding 1-2 1-3 1-4 neighbors ...
  special bond factors lj:    0        0        0       
  special bond factors coul:  0        0        0       
     4 = max # of 1-2 neighbors
    12 = max # of 1-3 neighbors
    18 = max # of 1-4 neighbors
    34 = max # of special neighbors
  special bonds CPU = 0.001 seconds
  read_data CPU = 0.117 seconds
Generated 21 of 21 mixed pair_coeff terms from sixthpower/geometric mixing rule
Neighbor list info ...
  update: every = 1 steps, delay = 0 steps, check = yes
  max neighbors/atom: 2000, page size: 100000
  master list distance cutoff = 12
  ghost atom cutoff = 12
  binsize = 6, bins = 8 8 8
  1 neighbor lists, perpetual/occasional/extra = 1 0 0
  (1) pair lj/class2/coul/cut, perpetual
      attributes: half, newton on
      pair build: half/bin/newton
      stencil: half/bin/3d
      bin: standard
Setting up cg style minimization ...
  Unit style    : real
  Current step  : 0
Per MPI rank memory allocation (min/avg/max) = 34.29 | 34.64 | 34.72 Mbytes
   Step          Temp          E_pair         E_mol          TotEng         Press     
         0   0              11.822865      5018.104       5029.9268     -2414.6428    
        69   0             -860.59234     -132.10061     -992.69295      94.270839    
Loop time of 1.93792 on 6 procs for 69 steps with 4965 atoms

98.0% CPU use with 6 MPI tasks x no OpenMP threads

Minimization stats:
  Stopping criterion = linesearch alpha is zero
  Energy initial, next-to-last, final = 
      5029.92682801421  -992.692953115411  -992.692953115411
  Force two-norm initial, final = 2317.7043 113.0592
  Force max component initial, final = 98.106528 13.700536
  Final line search alpha, max atom move = 8.2623173e-13 1.1319817e-11
  Iterations, force evaluations = 69 206

MPI task timing breakdown:
Section |  min time  |  avg time  |  max time  |%varavg| %total
---------------------------------------------------------------
Pair    | 0.33279    | 0.55008    | 0.73972    |  18.7 | 28.38
Bond    | 0.57816    | 0.71587    | 0.81414    |   9.8 | 36.94
Neigh   | 0.016631   | 0.017337   | 0.017985   |   0.4 |  0.89
Comm    | 0.30872    | 0.58226    | 0.92551    |  28.1 | 30.05
Output  | 0          | 0          | 0          |   0.0 |  0.00
Modify  | 0          | 0          | 0          |   0.0 |  0.00
Other   |            | 0.07237    |            |       |  3.73

Nlocal:          827.5 ave         940 max         668 min
Histogram: 1 0 1 0 0 1 1 0 0 2
Nghost:         5936.5 ave        6263 max        5665 min
Histogram: 1 0 1 1 0 1 1 0 0 1
Neighs:         152917 ave      195578 max       97567 min
Histogram: 1 0 1 0 0 1 1 0 0 2

Total # of neighbors = 917502
Ave neighs/atom = 184.79396
Ave special neighs/atom = 11.563746
Neighbor list builds = 3
Dangerous builds = 0
Generated 21 of 21 mixed pair_coeff terms from sixthpower/geometric mixing rule
Setting up Verlet run ...
  Unit style    : real
  Current step  : 69
  Time step     : 1
Per MPI rank memory allocation (min/avg/max) = 33.16 | 33.58 | 33.98 Mbytes
   Step          Temp          PotEng         E_vdwl         E_coul         E_bond        E_angle        E_dihed        E_impro        Density         Volume    
        69   0             -992.69295     -1003.9019      143.30954      47.80552       4969.7361     -5120.2997     -29.342539      0.44999999     99553.533    
       100   84.948592      62.633516     -955.57589      169.57303      491.61605      5521.8596     -5133.7673     -31.072003      0.44999999     99553.533    
       200   224.1934       1977.5584     -907.01668      181.35959      1244.5158      6452.6734     -4960.4591     -33.514567      0.44999999     99553.533    
       300   270.57267      2761.6531     -851.56626      225.62558      1490.2525      6884.0664     -4951.3407     -35.384453      0.44999999     99553.533    
       400   292.85053      3076.4174     -880.55416      319.1588       1630.8545      7105.8727     -5063.8235     -35.09092       0.44999999     99553.533    
       500   300.34255      2959.7945     -919.36041      217.61478      1666.2156      6989.5164     -4957.8726     -36.319202      0.44999999     99553.533    
       600   303.69963      2921.4159     -931.81492      173.98259      1688.2833      6936.4966     -4910.5832     -34.948424      0.44999999     99553.533    
       700   295.65202      2891.5873     -891.56706      164.85799      1676.0234      7011.6465     -5033.9982     -35.375233      0.44999999     99553.533    
       800   298.14991      2926.9345     -906.23584      167.11895      1698.2016      7070.8976     -5069.3882     -33.659717      0.44999999     99553.533    
       900   303.74167      2888.7067     -896.9882       141.8001       1658.8387      7017.8844     -5002.2376     -30.590659      0.44999999     99553.533    
      1000   302.0281       2856.2123     -944.14238      169.76062      1695.3935      7006.1507     -5039.6225     -31.327699      0.44999999     99553.533    
      1100   299.18695      2903.9223     -918.46488      161.45899      1711.7508      7014.7053     -5033.3769     -32.150967      0.44999999     99553.533    
      1200   305.25084      2832.4839     -898.1778       25.350132      1750.8596      7028.4556     -5038.0337     -35.969986      0.44999999     99553.533    
      1300   294.15579      2790.7038     -902.58515      73.239973      1748.5586      7060.0196     -5157.1812     -31.348011      0.44999999     99553.533    
      1400   307.96503      2698.6716     -923.86315      61.331119      1660.4213      7023.6244     -5087.7108     -35.131181      0.44999999     99553.533    
      1500   301.6782       2694.4627     -896.99942      91.229247      1680.8379      6983.7767     -5131.6249     -32.756886      0.44999999     99553.533    
      1600   296.83405      2754.266      -888.995        112.79565      1621.4212      7086.6899     -5142.4717     -35.173986      0.44999999     99553.533    
      1700   296.64649      2673.7879     -929.66218      82.575261      1706.9255      6998.1308     -5151.1431     -33.038316      0.44999999     99553.533    
      1800   305.64076      2671.2462     -932.76541      62.558247      1732.3143      7002.8394     -5158.478      -35.222312      0.44999999     99553.533    
      1900   307.95093      2698.1214     -920.13772      118.49028      1695.8377      6926.3644     -5090.1149     -32.318354      0.44999999     99553.533    
      2000   302.9145       2665.3251     -938.68479      42.485678      1673.0119      7096.1438     -5174.7382     -32.893236      0.44999999     99553.533    
      2100   307.61772      2555.9687     -926.18634     -8.2303606      1685.1329      6959.4441     -5118.4123     -35.779159      0.44999999     99553.533    
      2200   305.42018      2680.7131     -909.11332      91.838209      1660.1786      7038.581      -5161.7343     -39.037074      0.44999999     99553.533    
      2300   304.62271      2664.0819     -937.0837       73.547975      1716.2096      7019.3951     -5172.0631     -35.923964      0.44999999     99553.533    
      2400   300.5634       2569.0819     -947.21113      72.803433      1662.2402      6880.4052     -5066.0243     -33.131489      0.44999999     99553.533    
      2500   298.0821       2708.2163     -922.71148      134.15063      1717.6211      6985.958      -5172.3848     -34.417126      0.44999999     99553.533    
      2600   305.60084      2547.5411     -947.08623      142.19356      1631.2458      6903.4166     -5145.088      -37.140521      0.44999999     99553.533    
      2700   298.89831      2745.4948     -916.66471      105.26953      1705.201       7038.8557     -5151.8177     -35.349049      0.44999999     99553.533    
      2800   302.17514      2617.0349     -953.05051      103.84749      1719.2814      6928.642      -5150.4456     -31.239854      0.44999999     99553.533    
      2900   301.81627      2663.7217     -917.1919       145.78867      1643.2889      7022.5117     -5198.1048     -32.570827      0.44999999     99553.533    
      3000   314.18191      2567.4673     -930.83224      94.962982      1664.4595      6941.9911     -5166.0335     -37.0804        0.44999999     99553.533    
      3100   304.40935      2624.8429     -948.14188      91.07622       1732.0909      6973.7381     -5186.6864     -37.234012      0.44999999     99553.533    
      3200   301.69699      2548.9268     -924.16963      43.721701      1678.6296      7043.9135     -5258.2868     -34.881467      0.44999999     99553.533    
      3300   302.44446      2582.9331     -954.75363      78.831657      1673.421       6976.9889     -5157.1946     -34.360218      0.44999999     99553.533    
      3400   298.71673      2676.0751     -938.83043      162.13322      1637.4208      7021.507      -5172.2658     -33.889697      0.44999999     99553.533    
      3500   298.82911      2577.6826     -938.57589      36.633457      1690.17        7096.9819     -5274.4438     -33.083057      0.44999999     99553.533    
      3600   299.76182      2505.1301     -936.50658      78.568583      1666.495       7053.0442     -5321.7236     -34.747478      0.44999999     99553.533    
      3700   301.72441      2409.6331     -940.55356      48.013365      1615.2138      6918.2132     -5197.5601     -33.693512      0.44999999     99553.533    
      3800   296.89553      2461.3238     -951.31866      58.606795      1690.9815      6914.8941     -5216.5474     -35.292577      0.44999999     99553.533    
      3900   301.41913      2490.3387     -948.8413       62.792648      1695.9582      6940.2928     -5221.5957     -38.267958      0.44999999     99553.533    
      4000   306.82547      2416.5417     -947.41963      78.30393       1637.6285      6986.6206     -5304.3501     -34.241539      0.44999999     99553.533    
      4100   301.61099      2289.7637     -988.48777      1.2084468      1620.7564      7000.7521     -5308.3126     -36.152808      0.44999999     99553.533    
      4200   291.8805       2467.9123     -963.26245      29.575145      1675.0025      7051.5555     -5291.9827     -32.975771      0.44999999     99553.533    
      4300   306.80928      2516.7979     -983.60032      82.022389      1688.8786      7003.5819     -5236.7723     -37.31239       0.44999999     99553.533    
      4400   301.31621      2442.0232     -1016.4203      76.302307      1593.3236      6971.8484     -5146.5439     -36.486856      0.44999999     99553.533    
      4500   299.64064      2387.0648     -985.73251      19.400157      1652.0483      6934.4852     -5197.1449     -35.991575      0.44999999     99553.533    
      4600   301.73094      2417.5871     -995.41446      59.197244      1689.9534      6924.5685     -5223.2727     -37.444821      0.44999999     99553.533    
      4700   304.12245      2449.1765     -979.81956      104.91312      1675.6538      6927.5094     -5243.4524     -35.627942      0.44999999     99553.533    
      4800   298.00952      2457.8241     -969.08891      110.28527      1666.2851      6943.1829     -5258.3974     -34.442832      0.44999999     99553.533    
      4900   301.20575      2544.4955     -991.75814      116.61594      1718.0676      7073.9732     -5332.6338     -39.769281      0.44999999     99553.533    
      5000   298.30826      2384.7838     -974.69206      18.653707      1702.1385      7057.096      -5387.0655     -31.346937      0.44999999     99553.533    
      5100   302.95136      2363.5452     -955.88825     -10.151346      1696.1244      6972.9896     -5306.4331     -33.096066      0.44999999     99553.533    
      5200   299.94893      2326.1948     -976.67606      38.934942      1666.8993      6953.0848     -5322.3874     -33.660836      0.44999999     99553.533    
      5300   301.76481      2403.835      -974.49149      35.924878      1651.0606      6981.4465     -5255.3559     -34.749562      0.44999999     99553.533    
      5400   297.045        2465.0144     -986.69976      118.52306      1669.7478      6953.6145     -5258.9581     -31.213072      0.44999999     99553.533    
      5500   294.44978      2442.3763     -968.12752      192.19411      1657.3269      6859.3723     -5264.395      -33.994517      0.44999999     99553.533    
      5600   299.92678      2485.4541     -982.50655      109.15         1636.7054      7091.9507     -5334.0466     -35.798757      0.44999999     99553.533    
      5700   302.93787      2411.3467     -989.6539       145.07986      1676.6756      6907.0364     -5292.4966     -35.294673      0.44999999     99553.533    
      5800   300.6909       2481.149      -980.75052      159.41719      1703.728       6970.6213     -5334.2884     -37.578547      0.44999999     99553.533    
      5900   291.33979      2642.063      -970.48926      187.36994      1685.5693      7100.9976     -5324.9336     -36.450924      0.44999999     99553.533    
      6000   297.44445      2386.4514     -988.97293      95.551208      1657.0804      6944.5238     -5289.0221     -32.708981      0.44999999     99553.533    
      6100   299.62223      2301.5915     -961.44527      90.17534       1648.1855      6929.3314     -5369.2983     -35.35718       0.44999999     99553.533    
      6200   295.49719      2559.3609     -977.66151      157.78357      1678.5227      7017.1457     -5276.7233     -39.706218      0.44999999     99553.533    
      6300   299.71124      2532.8044     -953.75981      171.7217       1652.1647      7075.14       -5376.5213     -35.940888      0.44999999     99553.533    
      6400   299.62378      2381.0932     -1000.9272      100.76522      1680.6123      6880.6392     -5244.937      -35.059238      0.44999999     99553.533    
      6500   292.16798      2409.418      -958.93477      49.233683      1731.4256      6949.1593     -5328.4013     -33.064475      0.44999999     99553.533    
      6600   300.23716      2444.2289     -961.91278      113.48178      1690.5734      6911.9671     -5275.291      -34.589575      0.44999999     99553.533    
      6700   298.58255      2375.2903     -970.06049      80.172549      1691.4169      6975.8009     -5368.2899     -33.749714      0.44999999     99553.533    
      6800   291.91625      2417.2641     -987.20322      70.854033      1701.6756      6937.7709     -5272.1203     -33.712894      0.44999999     99553.533    
      6900   295.77162      2428.8058     -960.01785      51.431323      1703.042       6965.5083     -5295.8786     -35.279315      0.44999999     99553.533    
      7000   298.91694      2471.2253     -975.37324      48.490407      1724.491       7036.34       -5332.6042     -30.11872       0.44999999     99553.533    
      7100   299.82192      2383.6111     -978.05325      45.594218      1671.5054      7013.0535     -5335.5269     -32.961821      0.44999999     99553.533    
      7200   299.04901      2371.1367     -961.15229      110.58219      1632.7909      6954.5701     -5332.3245     -33.329722      0.44999999     99553.533    
      7300   301.24147      2407.2661     -946.60235      69.057055      1686.3456      6967.0044     -5335.0452     -33.493424      0.44999999     99553.533    
      7400   301.31849      2380.8324     -966.87102      54.843304      1735.3234      6959.3313     -5366.7025     -35.092093      0.44999999     99553.533    
      7500   304.66004      2314.8606     -974.9389       71.460016      1646.4695      6894.3871     -5290.7214     -31.795641      0.44999999     99553.533    
      7600   299.06375      2403.4642     -969.887        58.650443      1673.1836      7019.7712     -5343.4182     -34.835783      0.44999999     99553.533    
      7700   295.28456      2478.4615     -965.94349      73.291874      1703.7471      7107.1366     -5402.4808     -37.289897      0.44999999     99553.533    
      7800   305.9699       2306.8262     -994.29365      72.868138      1638.0596      6973.5478     -5345.2033     -38.152305      0.44999999     99553.533    
      7900   298.72999      2415.7583     -984.44136      99.474748      1685.3126      6928.5752     -5275.9565     -37.206406      0.44999999     99553.533    
      8000   302.42597      2358.5887     -989.59742      49.719717      1701.6572      6956.1562     -5324.8642     -34.482658      0.44999999     99553.533    
      8100   302.93573      2405.0699     -969.35525      112.15466      1712.4         6947.9182     -5360.6177     -37.430097      0.44999999     99553.533    
      8200   304.98672      2559.9461     -952.88566      165.4574       1738.8783      7029.4451     -5381.0086     -39.940489      0.44999999     99553.533    
      8300   309.67388      2458.1155     -947.36408      65.94159       1696.4257      7034.9497     -5357.728      -34.109353      0.44999999     99553.533    
      8400   303.72204      2389.2792     -981.91416      43.751974      1675.9123      7069.7783     -5381.8811     -36.368152      0.44999999     99553.533    
      8500   303.36862      2325.8299     -970.42847      12.922976      1707.1218      7072.5848     -5460.0355     -36.33572       0.44999999     99553.533    
      8600   300.29363      2297.5303     -1006.4522      22.124312      1677.5646      6924.0465     -5284.2593     -35.493619      0.44999999     99553.533    
      8700   305.13305      2279.6753     -989.54763      31.368131      1678.5835      6919.4535     -5324.5555     -35.626644      0.44999999     99553.533    
      8800   302.59216      2302.1227     -961.53964     -10.455954      1663.7848      7069.2818     -5421.8221     -37.126158      0.44999999     99553.533    
      8900   304.61264      2232.4375     -966.86268      43.426154      1630.0745      6992.2904     -5427.8641     -38.626752      0.44999999     99553.533    
      9000   296.85983      2203.9775     -1000.2933     -0.46941776     1687.7133      6903.361      -5352.1247     -34.209398      0.44999999     99553.533    
      9100   299.37476      2222.9256     -991.15884     -9.8972556      1702.7156      6898.7942     -5343.1622     -34.365964      0.44999999     99553.533    
      9200   300.60084      2336.1834     -1007.503      -1.6233761      1676.2936      7103.7889     -5395.747      -39.025842      0.44999999     99553.533    
      9300   301.28776      2186.4739     -990.06686     -41.76985       1678.3021      6941.1891     -5367.5181     -33.662531      0.44999999     99553.533    
      9400   297.96379      2165.4415     -976.0738      -17.710149      1651.2119      6915.4943     -5372.5758     -34.904954      0.44999999     99553.533    
      9500   304.3469       2225.6949     -1003.0002      25.374386      1670.8078      6955.7892     -5388.4753     -34.801063      0.44999999     99553.533    
      9600   295.97809      2231.2795     -970.65786      19.602506      1638.0349      6997.451      -5418.5454     -34.605722      0.44999999     99553.533    
      9700   304.85075      2218.9846     -1014.8927     -6.7170525      1710.4347      6955.9177     -5389.8852     -35.872977      0.44999999     99553.533    
      9800   305.96387      2225.9782     -1006.924       47.401196      1651.879       6941.9264     -5374.8091     -33.495281      0.44999999     99553.533    
      9900   297.17147      2260.5434     -987.60899      3.4181297      1689.9055      6969.6772     -5378.6977     -36.150623      0.44999999     99553.533    
     10000   296.03261      2274.6726     -983.29709      19.883294      1685.9299      6990.1378     -5403.2726     -34.70886       0.44999999     99553.533    
     10100   300.43234      2126.8316     -1004.6393     -20.357451      1624.49        6881.8499     -5320.2238     -34.287748      0.44999999     99553.533    
     10200   299.96906      2243.7533     -1006.8451      28.223375      1671.1377      6963.832      -5379.5899     -33.004772      0.44999999     99553.533    
     10300   305.23877      2285.8869     -991.54036     -56.834985      1723.5559      7037.6187     -5394.8433     -32.069098      0.44999999     99553.533    
     10400   306.34189      2180.8573     -1012.0085     -35.258368      1727.2325      6811.8306     -5274.9719     -35.967043      0.44999999     99553.533    
     10500   299.89434      2206.2536     -1013.1096     -65.120154      1671.4244      6982.8245     -5333.8859     -35.879652      0.44999999     99553.533    
     10600   300.68712      2201.3845     -968.03805     -26.442345      1701.1458      6893.1974     -5364.9612     -33.517126      0.44999999     99553.533    
     10700   299.39422      2259.9569     -975.23119     -30.302779      1712.6615      7022.5246     -5433.4942     -36.200938      0.44999999     99553.533    
     10800   297.20585      2251.4041     -1000.2762     -59.715089      1716.2595      7003.0042     -5375.1699     -32.698481      0.44999999     99553.533    
     10900   296.45405      2259.8642     -980.9229      -28.687054      1669.1809      7063.9265     -5425.3415     -38.291756      0.44999999     99553.533    
     11000   300.7002       2331.5991     -1022.658       24.537077      1684.6202      7014.5604     -5336.9945     -32.466053      0.44999999     99553.533    
     11100   303.64697      2148.3063     -1018.8229     -63.007262      1732.645       7010.1026     -5476.743      -35.868122      0.44999999     99553.533    
     11200   301.24891      2137.2942     -1009.609      -60.963907      1670.8352      6956.3777     -5385.648      -33.697821      0.44999999     99553.533    
     11300   301.23927      2207.9937     -1024.9918     -1.0682234      1693.8549      7003.8107     -5431.4205     -32.19135       0.44999999     99553.533    
     11400   300.37066      2149.0768     -1028.2692     -27.453194      1663.4603      6971.6623     -5397.3387     -32.984688      0.44999999     99553.533    
     11500   300.91921      2179.2388     -1002.0035      1.6531434      1663.0225      6906.3466     -5356.9086     -32.871335      0.44999999     99553.533    
     11600   300.91945      2328.3599     -1000.0379      113.43178      1710.4659      6909.2941     -5369.0117     -35.782312      0.44999999     99553.533    
     11700   305.69685      2273.429      -1001.3101      87.990355      1638.7165      7020.3453     -5434.0942     -38.218779      0.44999999     99553.533    
     11800   299.16835      2292.1343     -1003.1638      29.480589      1657.3265      6953.6773     -5309.2077     -35.978636      0.44999999     99553.533    
     11900   299.65129      2153.0893     -1011.8909     -36.781309      1643.8626      6892.7237     -5300.5387     -34.286008      0.44999999     99553.533    
     12000   295.40861      2120.2279     -1024.5862     -101.91676      1724.0545      6966.3554     -5406.9998     -36.679103      0.44999999     99553.533    
     12100   292.12538      2288.8903     -990.41885     -5.8845442      1707.9499      7080.7717     -5465.1982     -38.329761      0.44999999     99553.533    
     12200   300.15204      2146.1535     -1022.868       41.588685      1623.4873      6874.5907     -5337.716      -32.929173      0.44999999     99553.533    
     12300   292.4366       2234.5814     -994.00706     -18.67131       1630.0362      7017.228      -5364.3453     -35.659146      0.44999999     99553.533    
     12400   297.14008      2155.3817     -1021.4551     -16.544121      1654.2534      7003.9271     -5431.0054     -33.794147      0.44999999     99553.533    
     12500   295.1459       2299.9182     -1022.9024      55.065132      1672.4509      6929.4882     -5298.2939     -35.889663      0.44999999     99553.533    
     12600   296.90045      2224.6216     -1001.38        42.28193       1618.4191      6930.4686     -5331.3756     -33.79244       0.44999999     99553.533    
     12700   300.08845      2336.424      -982.95585      91.845977      1675.2253      7042.792      -5454.4574     -36.026067      0.44999999     99553.533    
     12800   299.08114      2276.9758     -997.65003      68.293799      1676.3087      6959.2103     -5393.6269     -35.560115      0.44999999     99553.533    
     12900   297.59298      2285.764      -988.35896      41.055603      1649.982       7003.0092     -5381.7222     -38.201632      0.44999999     99553.533    
     13000   302.84521      2369.0897     -1003.3886      68.52684       1692.5356      7054.8016     -5409.0516     -34.334116      0.44999999     99553.533    
     13100   297.87394      2265.8695     -1017.8817      16.955493      1712.1133      6992.9013     -5401.3347     -36.884205      0.44999999     99553.533    
     13200   294.03578      2144.2934     -1032.7217     -31.362749      1706.1004      6919.6183     -5383.5503     -33.790587      0.44999999     99553.533    
     13300   296.71378      2100.5918     -1034.1187     -14.408778      1701.2521      6885.6416     -5400.379      -37.395488      0.44999999     99553.533    
     13400   298.72755      2188.4109     -1004.9675     -21.798719      1693.0009      6929.0494     -5371.5768     -35.296511      0.44999999     99553.533    
     13500   301.45545      2116.1013     -1024.2693     -62.843616      1672.8689      6995.8246     -5427.7581     -37.721129      0.44999999     99553.533    
     13600   293.46287      2187.2257     -1024.8245     -40.033343      1676.384       6981.0543     -5371.831      -33.523687      0.44999999     99553.533    
     13700   297.4753       2187.3783     -1007.3503     -8.9535414      1668.1595      6983.6833     -5411.1627     -36.998097      0.44999999     99553.533    
     13800   299.7728       2152.4326     -999.14588     -74.296334      1644.3062      7043.0315     -5421.9835     -39.479373      0.44999999     99553.533    
     13900   295.37095      2177.1481     -1020.8055      4.734226       1646.3588      7010.0394     -5425.8396     -37.339335      0.44999999     99553.533    
     14000   296.97423      2229.0777     -1012.6397      25.294201      1701.4774      7032.1056     -5481.1228     -36.036977      0.44999999     99553.533    
     14100   293.04094      2248.3105     -1007.2509      15.443889      1695.1789      7035.6707     -5453.7551     -36.976914      0.44999999     99553.533    
     14200   302.00857      2224.0492     -1036.6823      28.791112      1705.1739      7015.7438     -5452.5031     -36.474109      0.44999999     99553.533    
     14300   298.60068      2097.9485     -1027.5202      19.148592      1646.1447      6875.2174     -5378.641      -36.40104       0.44999999     99553.533    
     14400   295.56442      2173.2468     -1035.0862      83.43833       1596.3217      7049.4206     -5482.6346     -38.213032      0.44999999     99553.533    
     14500   303.93763      2148.7292     -1030.9988      13.881962      1694.0551      6924.4398     -5415.2115     -37.437396      0.44999999     99553.533    
     14600   295.88727      2143.945      -1038.5631      38.276554      1653.0523      6921.7481     -5389.8344     -40.734468      0.44999999     99553.533    
     14700   299.89165      2229.1704     -998.06656      21.348319      1687.2441      6967.0194     -5411.9112     -36.463729      0.44999999     99553.533    
     14800   302.40274      2181.9364     -1021.819      -30.824542      1721.5508      6930.5868     -5382.3702     -35.187368      0.44999999     99553.533    
     14900   311.44422      2094.304      -1027.7724     -67.553484      1650.9071      7071.4174     -5496.2323     -36.462279      0.44999999     99553.533    
     15000   303.75031      2073.5968     -1044.1215     -58.958765      1676.5572      6977.6908     -5442.6748     -34.896093      0.44999999     99553.533    
     15100   299.47727      2224.3774     -1040.0295      65.057649      1699.8411      6876.0419     -5344.0339     -32.499881      0.44999999     99553.533    
     15200   304.82529      2273.4591     -1021.277       12.150551      1657.8011      7056.1466     -5395.3227     -36.039327      0.44999999     99553.533    
     15300   300.06483      2122.695      -1022.9984     -71.277318      1726.549       6905.2452     -5379.3176     -35.505856      0.44999999     99553.533    
     15400   292.44777      2237.5846     -1001.8093     -31.849408      1729.2439      6941.1294     -5362.7083     -36.421633      0.44999999     99553.533    
     15500   297.8715       2092.1316     -1016.0485     -51.869057      1693.104       6881.7658     -5380.6681     -34.152523      0.44999999     99553.533    
     15600   292.93556      2038.605      -995.63229     -40.490846      1632.0658      6990.2027     -5510.7361     -36.80415       0.44999999     99553.533    
     15700   295.43305      2176.6448     -1061.3363      16.206617      1687.6856      6854.751      -5283.5474     -37.1147        0.44999999     99553.533    
     15800   300.6801       2185.8508     -1035.6966      10.594092      1666.6402      7020.0412     -5442.0342     -33.693845      0.44999999     99553.533    
     15900   301.56009      2163.0694     -1012.3162     -82.84869       1721.7835      6972.9974     -5401.7004     -34.846228      0.44999999     99553.533    
     16000   305.95895      2160.6162     -1049.7876      2.8787205      1673.4102      6969.43       -5400.8135     -34.501748      0.44999999     99553.533    
     16100   302.53019      2269.5282     -1052.2548      103.57379      1711.4838      6907.3616     -5366.5657     -34.070546      0.44999999     99553.533    
     16200   304.77385      2182.7717     -1043.4926     -35.764965      1659.6497      7035.7852     -5394.8384     -38.567272      0.44999999     99553.533    
     16300   306.12112      2123.4324     -1021.6576     -87.262858      1674.3834      6995.8089     -5401.847      -35.992351      0.44999999     99553.533    
     16400   301.88055      2163.4958     -1011.5553     -55.275817      1673.407       7022.4762     -5426.5787     -38.977606      0.44999999     99553.533    
     16500   300.01864      2164.086      -1034.661      -40.204212      1689.1512      7024.3852     -5436.7198     -37.865368      0.44999999     99553.533    
     16600   301.16838      2147.9226     -1060.9747     -49.24703       1679.0624      7026.4267     -5415.6964     -31.64836       0.44999999     99553.533    
     16700   299.62392      2019.6595     -1021.2757     -99.262654      1647.1379      6911.5742     -5380.2648     -38.249474      0.44999999     99553.533    
     16800   293.5227       2089.7401     -1063.4395     -43.3598        1662.9959      6926.4977     -5359.7945     -33.159631      0.44999999     99553.533    
     16900   297.2266       2142.4781     -1051.6453      26.222019      1675.0081      6953.1208     -5423.3178     -36.909714      0.44999999     99553.533    
     17000   295.89164      2099.6882     -1067.1352     -23.4687        1659.1881      6882.4576     -5316.4102     -34.943422      0.44999999     99553.533    
     17100   298.32753      2109.5776     -1038.5443     -28.895435      1689.9224      6946.7464     -5421.3924     -38.259037      0.44999999     99553.533    
     17200   296.77314      2183.6609     -1069.7594     -10.680594      1754.0488      6922.4342     -5377.6293     -34.75279       0.44999999     99553.533    
     17300   297.05504      2231.8703     -1056.1496      24.765589      1732.163       6952.4177     -5384.4341     -36.892365      0.44999999     99553.533    
     17400   305.24862      2143.753      -1036.6593      15.662168      1660.8366      6994.9264     -5454.6694     -36.343467      0.44999999     99553.533    
     17500   300.62212      2199.83       -1077.7706      31.363612      1711.0712      6945.1674     -5375.271      -34.730626      0.44999999     99553.533    
     17600   298.63987      2095.6199     -1065.693       5.5334969      1670.6268      6823.5726     -5306.5679     -31.852096      0.44999999     99553.533    
     17700   299.45491      2143.8718     -1032.9717      12.088269      1634.7862      7067.0511     -5498.051      -39.03112       0.44999999     99553.533    
     17800   304.46106      2162.0272     -1067.9942      14.841873      1669.2139      6892.9574     -5313.6988     -33.293032      0.44999999     99553.533    
     17900   301.52393      2105.4304     -1060.5291      23.713249      1641.7062      6952.8065     -5417.4411     -34.825396      0.44999999     99553.533    
     18000   298.96651      2126.6271     -1071.9352     -1.3206294      1662.1435      6959.3696     -5383.758      -37.872046      0.44999999     99553.533    
     18100   294.90169      2156.7084     -1087.2987     -5.9872104      1701.836       6911.2951     -5330.3617     -32.775034      0.44999999     99553.533    
     18200   296.36848      2206.0912     -1069.358      -7.8326363      1671.6177      7018.0175     -5369.7954     -36.557936      0.44999999     99553.533    
     18300   301.53953      2104.1463     -1019.9688     -7.3802393      1635.3667      6903.0029     -5369.7874     -37.086888      0.44999999     99553.533    
     18400   300.45381      2139.2499     -1070.5812      14.448616      1669.5877      7001.4008     -5438.5648     -37.041259      0.44999999     99553.533    
     18500   304.4472       2212.4618     -1065.1295      80.45925       1641.516       6946.6756     -5356.1493     -34.910268      0.44999999     99553.533    
     18600   298.45145      2169.6924     -1064.0015     -14.726467      1718.9458      6901.8836     -5334.3132     -38.095818      0.44999999     99553.533    
     18700   305.17758      2082.7044     -1065.7195     -36.388739      1694.1403      6917.3588     -5394.1928     -32.493608      0.44999999     99553.533    
     18800   298.82828      2137.7974     -1061.367       57.071938      1654.0291      6963.9684     -5441.135      -34.77009       0.44999999     99553.533    
     18900   300.64176      2189.4032     -1070.0145      95.145351      1679.5504      6915.0793     -5399.768      -30.589283      0.44999999     99553.533    
     19000   298.95354      2051.1865     -1064.5741      15.708101      1646.5085      6912.027      -5421.8485     -36.634473      0.44999999     99553.533    
     19100   300.71471      2090.2466     -1087.0553     -13.124112      1707.1052      6986.213      -5463.2047     -39.687561      0.44999999     99553.533    
     19200   299.7947       2158.2949     -1065.0152      25.967204      1686.4386      6972.8698     -5427.2438     -34.721725      0.44999999     99553.533    
     19300   300.70982      2194.7682     -1092.2252      84.59006       1668.4381      6942.1331     -5374.9222     -33.245631      0.44999999     99553.533    
     19400   301.8941       2277.3951     -1055.8538      90.655033      1729.9906      6974.9453     -5423.9964     -38.345601      0.44999999     99553.533    
     19500   304.00586      2068.2225     -1077.9642      19.089632      1656.0003      6874.3735     -5366.9369     -36.339947      0.44999999     99553.533    
     19600   304.46614      2088.8436     -1077.2092      48.156017      1660.8536      6891.6083     -5400.1025     -34.462603      0.44999999     99553.533    
     19700   307.05572      2068.023      -1065.9893      12.598504      1618.7608      6921.3202     -5380.9578     -37.709458      0.44999999     99553.533    
     19800   296.99133      2196.1643     -1074.9811      53.716398      1694.9701      6949.6036     -5392.2434     -34.901271      0.44999999     99553.533    
     19900   296.72519      2182.9965     -1040.4316      49.298345      1666.0356      7029.3064     -5486.6929     -34.519423      0.44999999     99553.533    
     20000   300.28974      2192.1088     -1060.5521      44.27075       1659.6186      6994.9341     -5414.4151     -31.747387      0.44999999     99553.533    
     20069   294.28024      2250.3811     -1063.4142      105.96522      1709.1048      7079.9469     -5545.5272     -35.694377      0.44999999     99553.533    
Loop time of 184.726 on 6 procs for 20000 steps with 4965 atoms

Performance: 9.354 ns/day, 2.566 hours/ns, 108.268 timesteps/s, 537.553 katom-step/s
97.3% CPU use with 6 MPI tasks x no OpenMP threads

MPI task timing breakdown:
Section |  min time  |  avg time  |  max time  |%varavg| %total
---------------------------------------------------------------
Pair    | 26.587     | 40.973     | 53.832     | 148.9 | 22.18
Bond    | 45.69      | 60.475     | 73.533     | 118.3 | 32.74
Neigh   | 5.0291     | 5.057      | 5.0929     |   1.0 |  2.74
Comm    | 40.783     | 66.536     | 95.633     | 223.1 | 36.02
Output  | 0.59719    | 0.61906    | 0.67521    |   3.3 |  0.34
Modify  | 0.84955    | 1.0255     | 1.1668     |  11.5 |  0.56
Other   |            | 10.04      |            |       |  5.44

Nlocal:          827.5 ave         928 max         623 min
Histogram: 1 1 0 0 0 0 0 0 0 4
Nghost:         6039.5 ave        6403 max        5859 min
Histogram: 2 1 0 1 1 0 0 0 0 1
Neighs:         158312 ave      193769 max       98533 min
Histogram: 2 0 0 0 0 0 0 0 2 2

Total # of neighbors = 949875
Ave neighs/atom = 191.3142
Ave special neighs/atom = 11.563746
Neighbor list builds = 614
Dangerous builds = 0
Generated 21 of 21 mixed pair_coeff terms from sixthpower/geometric mixing rule
Setting up Verlet run ...
  Unit style    : real
  Current step  : 20069
  Time step     : 1
Per MPI rank memory allocation (min/avg/max) = 33.54 | 33.71 | 33.98 Mbytes
   Step          Temp          PotEng         E_vdwl         E_coul         E_bond        E_angle        E_dihed        E_impro        Density         Volume    
     20069   294.28024      2250.3811     -1063.4142      105.96522      1709.1048      7079.9469     -5545.5272     -35.694377      0.44999999     99553.533    
     20100   298.50523      2231.2337     -1077.8389      146.24676      1640.7223      7046.4745     -5486.3826     -37.988283      0.45004233     99544.167    
     20200   299.01433      2228.9197     -1079.5356      98.148141      1644.593       6947.3157     -5350.0623     -31.539253      0.45081151     99374.324    
     20300   303.95494      2244.7103     -1098.5856      81.889627      1710.6659      6947.9222     -5356.6372     -40.544569      0.45356369     98771.33     
     20400   302.54407      2318.6925     -1081.1195      150.9414       1707.7647      7031.4314     -5453.8189     -36.506453      0.45781683     97853.739    
     20500   301.44295      2208.1867     -1127.308       85.02411       1695.0587      6990.7832     -5399.5278     -35.843483      0.4623514      96894.028    
     20600   302.18351      2155.5868     -1117.1048      108.77745      1685.9189      6920.9565     -5409.7696     -33.191728      0.46686777     95956.697    
     20700   298.06241      2156.5805     -1134.0638      121.52808      1669.4925      6965.3983     -5433.2073     -32.567255      0.47078916     95157.435    
     20800   300.66689      2037.3772     -1176.7111      89.963063      1632.7468      6913.5497     -5386.4035     -35.767717      0.47483626     94346.394    
     20900   299.60024      2096.6056     -1151.7156      133.01727      1626.5145      6970.8041     -5449.6811     -32.333626      0.4791438      93498.213    
     21000   299.96144      2161.5866     -1168.7827      109.74244      1642.8199      7071.1887     -5454.2862     -39.095531      0.48341367     92672.367    
     21100   305.96131      2070.9491     -1148.8067      52.188334      1686.4338      6972.3914     -5455.9152     -35.342619      0.48737369     91919.384    
     21200   297.47672      2040.2545     -1195.4943     -2.3688884      1645.5719      6968.7587     -5339.9428     -36.270083      0.49061767     91311.61     
     21300   299.74843      1993.02       -1162.5361      66.596953      1655.5743      6920.5091     -5449.552      -37.572216      0.49417388     90654.505    
     21400   297.85137      2051.9143     -1181.3199      105.73353      1662.4351      6911.774      -5408.4212     -38.287292      0.49812804     89934.888    
     21500   298.0617       1995.6167     -1190.0976      18.204768      1694.0832      6946.2471     -5434.1262     -38.694675      0.50199182     89242.667    
     21600   303.56023      1945.6141     -1193.6753      12.815826      1629.7185      6961.2986     -5428.3094     -36.234235      0.50561951     88602.375    
     21700   307.79282      1882.7527     -1205.8342     -35.02093       1597.1056      6961.7621     -5399.8953     -35.364587      0.50930716     87960.847    
     21800   301.91506      1921.4759     -1224.9016     -41.74629       1622.9661      7025.3368     -5423.3669     -36.812211      0.51195616     87505.714    
     21900   302.62222      1762.9612     -1221.6431     -69.592729      1579.6345      6959.6309     -5448.4841     -36.584222      0.51477749     87026.123    
     22000   293.73962      1888.1244     -1247.7625     -30.741379      1659.0643      7055.1811     -5515.4741     -32.143039      0.51839085     86419.522    
     22100   298.84246      1925.7219     -1249.5037      62.440191      1617.4401      6967.4487     -5438.3319     -33.771476      0.52211752     85802.693    
     22200   303.61944      1817.3706     -1249.7635     -63.465656      1617.8674      6961.4958     -5411.6213     -37.142194      0.52586742     85190.844    
     22300   308.67961      1839.3266     -1213.0326     -54.296353      1634.238       6902.7852     -5394.5962     -35.77142       0.52975851     84565.115    
     22400   305.22579      1836.4287     -1242.6337     -39.642808      1608.2308      7039.3986     -5491.3884     -37.53584       0.53333323     83998.308    
     22500   297.60718      1914.9154     -1270.9525      31.232545      1654.2068      6972.9431     -5437.5297     -34.984819      0.53680828     83454.542    
     22600   295.58154      1868.2137     -1243.2025     -24.399091      1632.5297      7053.1182     -5518.0178     -31.814732      0.54012738     82941.712    
     22700   299.41987      1823.8872     -1239.7054      3.373925       1593.4728      6897.4229     -5392.7088     -37.968169      0.54352494     82423.245    
     22800   302.20768      1798.7035     -1277.123      -22.362475      1643.2637      6948.2557     -5460.0565     -33.273937      0.54690278     81914.173    
     22900   303.15609      1834.1959     -1290.1201     -28.771811      1616.492       6922.0399     -5352.9038     -32.540268      0.55107357     81294.208    
     23000   297.47647      1965.9883     -1272.2312      78.226409      1679.465       6963.481      -5446.9095     -36.043567      0.5554096      80659.552    
     23100   300.33441      1741.9063     -1291.3695      8.9797131      1595.1235      6888.8166     -5424.7649     -34.879143      0.55913177     80122.597    
     23200   297.94221      1730.6642     -1327.3047     -28.819938      1636.0712      6966.2525     -5479.8797     -35.655149      0.5625584      79634.557    
     23300   304.87185      1781.1658     -1301.7475      69.605104      1589.9942      6907.4439     -5452.1101     -32.019811      0.56672644     79048.878    
     23400   307.48724      1734.3127     -1321.7982     -36.718834      1591.4041      6912.8656     -5374.8459     -36.594112      0.57051398     78524.086    
     23500   302.04687      1826.7757     -1297.4211     -50.621912      1680.5167      6990.2143     -5464.1614     -31.75098       0.57415569     78026.03     
     23600   295.43535      1806.4754     -1315.1576      28.740977      1638.1327      7002.1291     -5510.2351     -37.134502      0.57781822     77531.459    
     23700   296.75431      1693.3137     -1345.2042     -31.050223      1594.773       6912.8219     -5405.8228     -32.204049      0.58154563     77034.522    
     23800   296.4992       1793.8776     -1328.8743      21.182715      1649.309       7015.6349     -5529.2813     -34.093315      0.58537901     76530.058    
     23900   301.83259      1748.7782     -1346.8825     -39.08746       1664.29        6983.2342     -5477.6004     -35.175597      0.58908502     76048.597    
     24000   296.79176      1898.2918     -1388.7706      2.3385311      1696.5689      7017.505      -5397.7983     -31.55171       0.59179226     75700.701    
     24100   303.93642      1674.0475     -1371.4663     -16.91124       1588.4825      6954.0222     -5443.9031     -36.176664      0.59548941     75230.707    
     24200   297.80702      1711.4377     -1350.156       19.512035      1632.7048      6929.0604     -5484.9204     -34.763165      0.59920056     74764.766    
     24300   300.65614      1667.7168     -1404.1051     -2.8028323      1620.7904      6873.4638     -5383.7022     -35.9273        0.60167185     74457.678    
     24400   302.0517       1721.0567     -1379.6332      68.395636      1594.9215      6889.1929     -5417.6647     -34.155461      0.60349756     74232.428    
     24500   296.25626      1795.6422     -1377.1094      119.35454      1605.8688      6974.5465     -5489.9308     -37.08747       0.60541499     73997.324    
     24600   296.62566      1566.0244     -1379.5209      10.77243       1566.3462      6788.4351     -5382.5495     -37.458937      0.6084265      73631.062    
     24700   298.34173      1594.095      -1406.2138      20.194584      1563.7612      6939.9825     -5488.8578     -34.77167       0.61090902     73331.851    
     24800   299.69892      1625.3079     -1420.8401     -19.270132      1598.877       6867.4986     -5365.4737     -35.483777      0.61440908     72914.106    
     24900   298.41707      1720.5833     -1428.5139      52.757623      1617.6719      6989.7531     -5473.8432     -37.242303      0.61899993     72373.335    
     25000   298.63395      1625.9668     -1414.7764     -30.390186      1623.1479      6893.2636     -5412.4858     -32.792351      0.6229496      71914.468    
     25100   302.84511      1438.1237     -1405.8477     -170.40346      1576.1468      6993.3831     -5518.2472     -36.907772      0.62644809     71512.851    
     25200   301.51114      1553.1475     -1425.4779     -61.960073      1594.9244      6954.7061     -5474.7878     -34.257189      0.62935126     71182.966    
     25300   303.53271      1477.3839     -1433.2043     -55.277398      1564.3853      6890.6553     -5457.3066     -31.868361      0.63155087     70935.045    
     25400   296.27566      1645.2908     -1424.8845      73.628697      1600.7891      6898.0907     -5467.3458     -34.987335      0.63517953     70529.806    
     25500   299.95319      1607.0003     -1406.9868      61.258345      1599.9976      6912.9892     -5525.2344     -35.023667      0.63949683     70053.653    
     25600   305.72866      1584.1423     -1444.5341     -3.0209388      1622.4413      6853.4475     -5409.0299     -35.161515      0.64237681     69739.581    
     25700   299.72293      1759.4228     -1455.4345      66.878607      1662.47        6940.1932     -5419.7771     -34.907308      0.64461939     69496.962    
     25800   300.1242       1657.7442     -1460.7884      23.796533      1648.9695      6954.6327     -5473.9943     -34.871819      0.6479065      69144.374    
     25900   297.26631      1709.8239     -1444.417       95.634365      1634.7889      6933.7458     -5474.5161     -35.412077      0.65146228     68766.973    
     26000   298.60981      1665.2238     -1457.5119      89.879912      1611.3857      6825.2278     -5369.8731     -33.884605      0.65523946     68370.56     
     26100   299.85769      1735.1646     -1481.0874      91.090084      1600.0513      6980.124      -5421.7324     -33.280905      0.65882191     67998.785    
     26200   306.25029      1610.7546     -1481.2017     -22.83343       1615.3901      7038.49       -5504.0245     -35.065892      0.66280548     67590.101    
     26300   300.69963      1582.3764     -1474.8835     -70.917981      1640.7012      7022.2968     -5502.2333     -32.58678       0.66630199     67235.412    
     26400   301.79505      1557.4175     -1480.3983      17.996467      1573.0739      6979.7238     -5497.7501     -35.228301      0.66887081     66977.193    
     26500   294.99469      1450.953      -1467.044      -143.19564      1639.6531      6957.3779     -5501.1515     -34.68685       0.67105039     66759.65     
     26600   292.40679      1530.9077     -1469.9455     -94.483416      1613.8329      7020.4021     -5505.1262     -33.772199      0.67312485     66553.908    
     26700   301.90203      1648.4811     -1463.6343      42.21523       1590.1354      6926.4016     -5413.1712     -33.465643      0.67490934     66377.936    
     26800   302.94586      1697.7472     -1480.6031      44.859779      1659.3727      6978.5628     -5467.903      -36.541901      0.67536349     66333.3      
     26900   298.72164      1584.7315     -1481.9163     -46.982161      1643.6379      7017.6543     -5510.6932     -36.968991      0.67690712     66182.033    
     27000   298.1755       1604.6421     -1506.344       41.09419       1618.522       6905.6169     -5422.6187     -31.628324      0.67989344     65891.339    
     27100   295.76713      1582.1533     -1500.2746     -11.943575      1633.4323      6897.8779     -5404.4099     -32.528797      0.6855046      65351.989    
     27200   299.79557      1547.3978     -1526.9068     -30.151235      1580.8293      6981.6074     -5420.98       -37.000951      0.69167111     64769.351    
     27300   307.73185      1496.9818     -1509.2286     -64.862082      1610.218       6982.0966     -5484.7295     -36.512612      0.69789903     64191.362    
     27400   304.05692      1563.0639     -1547.6882      6.976808       1604.4911      6890.8184     -5356.1892     -35.34498       0.70314283     63712.644    
     27500   295.6412       1474.0574     -1520.0653     -93.77823       1625.4411      7031.1296     -5532.3077     -36.362094      0.70699231     63365.738    
     27600   299.58         1444.3557     -1552.0263     -52.785413      1628.0687      6926.4892     -5470.7976     -34.592928      0.71007893     63090.295    
     27700   299.52894      1374.0313     -1562.7137     -133.6887       1614.1662      7027.6239     -5533.7628     -37.593555      0.71295425     62835.854    
     27800   301.76093      1393.5        -1576.532      -136.8206       1636.7671      6976.2664     -5469.7108     -36.470075      0.71531605     62628.385    
     27900   304.80253      1384.965      -1554.393      -149.7341       1605.2158      6927.0034     -5407.7578     -35.369265      0.71748549     62439.018    
     28000   300.55796      1503.2579     -1514.1663     -37.638672      1609.7461      7044.0965     -5561.7579     -37.021894      0.71859996     62342.181    
     28100   299.60911      1370.4923     -1568.9729     -68.780944      1579.7243      6929.0852     -5465.9875     -34.575945      0.71919317     62290.76     
     28200   297.93964      1417.9931     -1566.3397     -23.593807      1595.5079      6940.796      -5494.6067     -33.770635      0.72068117     62162.147    
     28300   298.91397      1525.4803     -1543.4525      43.521688      1597.3601      6980.8459     -5518.7133     -34.081579      0.72318625     61946.821    
     28400   301.39852      1460.9634     -1556.9509     -60.320765      1667.9149      6941.3484     -5495.2584     -35.76994       0.72638992     61673.61     
     28500   301.63898      1468.1755     -1568.4826     -41.511847      1617.4422      7047.3812     -5550.6316     -36.021858      0.72936254     61422.251    
     28600   299.91178      1489.4052     -1566.573      -9.6109976      1652.5952      6888.4621     -5440.2033     -35.264709      0.73233007     61173.358    
     28700   296.88488      1412.2722     -1603.8793     -68.23463       1600.2283      6988.9736     -5468.5385     -36.277232      0.73506584     60945.682    
     28800   302.2664       1129.1751     -1592.9104     -226.12495      1534.2098      6971.9045     -5522.267      -35.636848      0.73757353     60738.472    
     28900   294.77375      1234.0889     -1576.2911     -152.44627      1567.8593      7010.4084     -5581.1975     -34.243893      0.73974407     60560.254    
     29000   295.84653      1177.5193     -1605.6734     -152.08028      1568.6409      6929.6492     -5528.3964     -34.620705      0.74082343     60472.02     
     29100   302.12347      1093.4111     -1604.4268     -229.88416      1573.5786      6925.5713     -5534.9034     -36.524481      0.74225782     60355.16     
     29200   301.237        1260.9839     -1601.9303     -157.87261      1597.5021      6930.0884     -5473.1415     -33.66224       0.74402747     60211.606    
     29300   299.19264      1340.1086     -1587.2159     -126.53995      1571.9871      6945.848      -5428.2569     -35.713811      0.74627577     60030.208    
     29400   299.89205      1223.7501     -1605.5639     -213.50303      1559.4161      6882.7783     -5363.0376     -36.339853      0.74777977     59909.469    
     29500   301.81718      1064.5122     -1649.6129     -244.08447      1569.2467      6953.2861     -5528.8493     -35.473944      0.74981677     59746.715    
     29600   300.75813      1130.9563     -1636.684      -129.81812      1548.3783      6914.8061     -5527.8969     -37.829064      0.75303653     59491.256    
     29700   296.26631      1345.5871     -1637.405      -39.380134      1630.3439      6903.6762     -5475.8629     -35.784922      0.75689551     59187.944    
     29800   297.31037      1432.4339     -1629.8753     -20.282661      1654.9351      7072.0993     -5605.7538     -38.688843      0.76071448     58890.807    
     29900   300.12104      1344.1362     -1660.3332     -63.156125      1634.2907      6977.1387     -5508.4102     -35.393587      0.76426231     58617.426    
     30000   299.76121      1245.9987     -1643.7325     -135.53252      1580.2956      6966.5466     -5486.5799     -34.998633      0.76810782     58323.959    
     30069   296.31129      1324.9687     -1647.3687     -66.866148      1604.8877      6925.4407     -5453.665      -37.459835      0.77075878     58123.359    
Loop time of 114.655 on 6 procs for 10000 steps with 4965 atoms

Performance: 7.536 ns/day, 3.185 hours/ns, 87.218 timesteps/s, 433.039 katom-step/s
98.4% CPU use with 6 MPI tasks x no OpenMP threads

MPI task timing breakdown:
Section |  min time  |  avg time  |  max time  |%varavg| %total
---------------------------------------------------------------
Pair    | 20.541     | 29.136     | 38.456     | 105.4 | 25.41
Bond    | 24.79      | 31.25      | 40.208     | 101.2 | 27.26
Neigh   | 3.7385     | 3.7528     | 3.7709     |   0.5 |  3.27
Comm    | 19.499     | 37.078     | 50.323     | 178.2 | 32.34
Output  | 0.079283   | 0.090655   | 0.10675    |   2.7 |  0.08
Modify  | 11.297     | 12.093     | 12.566     |  15.5 | 10.55
Other   |            | 1.254      |            |       |  1.09

Nlocal:          827.5 ave         922 max         688 min
Histogram: 1 0 0 1 0 0 1 2 0 1
Nghost:        7770.17 ave        8013 max        7560 min
Histogram: 2 1 0 0 0 0 1 0 1 1
Neighs:         253278 ave      299900 max      186268 min
Histogram: 1 0 0 0 1 1 1 0 1 1

Total # of neighbors = 1519667
Ave neighs/atom = 306.07593
Ave special neighs/atom = 11.563746
Neighbor list builds = 352
Dangerous builds = 0
Read molecule template pre:
  1 molecules
  0 fragments
  42 atoms with max type 6
  41 bonds with max type 5
  76 angles with max type 16
  105 dihedrals with max type 19
  48 impropers with max type 15
Read molecule template post:
  1 molecules
  0 fragments
  42 atoms with max type 6
  41 bonds with max type 5
  76 angles with max type 16
  105 dihedrals with max type 19
  48 impropers with max type 15
dynamic group bond_react_MASTER_group defined
dynamic group statted_grp_REACT defined

CITE-CITE-CITE-CITE-CITE-CITE-CITE-CITE-CITE-CITE-CITE-CITE-CITE

Your simulation uses code contributions which should be cited:
- fix bond/react: reacter.org doi:10.1016/j.polymer.2017.09.038, doi:10.1021/acs.macromol.0c02012
The log file lists these citations in BibTeX format.

CITE-CITE-CITE-CITE-CITE-CITE-CITE-CITE-CITE-CITE-CITE-CITE-CITE

Generated 21 of 21 mixed pair_coeff terms from sixthpower/geometric mixing rule
Neighbor list info ...
  update: every = 1 steps, delay = 0 steps, check = yes
  max neighbors/atom: 2000, page size: 100000
  master list distance cutoff = 12
  ghost atom cutoff = 12
  binsize = 6, bins = 7 7 7
  2 neighbor lists, perpetual/occasional/extra = 1 1 0
  (1) pair lj/class2/coul/cut, perpetual
      attributes: half, newton on
      pair build: half/bin/newton
      stencil: half/bin/3d
      bin: standard
  (2) fix bond/react, occasional, copy from (1)
      attributes: half, newton on
      pair build: copy
      stencil: none
      bin: none
Setting up Verlet run ...
  Unit style    : real
  Current step  : 30069
  Time step     : 1
Per MPI rank memory allocation (min/avg/max) = 40.71 | 41.12 | 41.51 Mbytes
   Step          Temp          PotEng         E_vdwl         E_coul         E_bond        E_angle        E_dihed        E_impro        Density         Volume       f_fxrct[1]  
     30069   296.31129      1324.9687     -1647.3687     -66.866148      1604.8877      6925.4407     -5453.665      -37.459835      0.77075878     58123.359      0            
     30100   298.39729      1257.5532     -1661.9214     -103.06724      1575.7783      6938.4938     -5458.5598     -33.17041       0.77090409     58112.403      0            
     30200   300.25905      1248.6966     -1638.7218     -107.95418      1613.1565      6943.939      -5526.3143     -35.408708      0.77286227     57965.166      0            
     30300   307.41492      1234.0768     -1671.466      -77.984274      1574.9682      6954.7213     -5505.9124     -40.25012       0.774594       57835.575      0            
     30400   310.1048       1249.2959     -1639.2168     -78.070975      1571.7224      7069.0386     -5635.6184     -38.558978      0.77595967     57733.785      0            
     30500   301.44268      223953         134.97203     -132.48704      222602.97      6905.5759     -5523.5213     -34.503088      0.77602526     57728.906      1            
     30600   304.73135      1318.8769     -1752.4986     -88.450792      1592.2626      6989.398      -5388.3183     -33.515926      0.84191216     53211.12       1            
     30700   307.22261      1117.2417     -1738.9341     -91.371812      1548.7693      6907.8354     -5474.889      -34.168047      0.84103514     53266.608      1            
     30800   298.6418       1029.7293     -1712.4648     -181.4551       1496.116       7029.6725     -5567.2591     -34.880211      0.83578911     53600.949      1            
     30900   293.3974       1059.2027     -1786.7062     -143.62515      1583.7832      6802.6528     -5363.5511     -33.350828      0.8312946      53890.75       1            
     31000   296.69622      975.25862     -1765.4888     -188.42686      1488.1055      6866.9359     -5391.5679     -34.299281      0.82822844     54090.257      1            
     31100   301.59575      1105.3851     -1748.1195     -87.855024      1494.6164      7023.4397     -5537.854      -38.842509      0.82662658     54195.074      1            
     31200   306.30563      1097.6581     -1762.251      -102.34197      1502.7751      6833.9811     -5340.7732     -33.731813      0.82452999     54332.88       1            
     31300   301.67299      1198.2829     -1725.6622     -67.796027      1575.9624      6853.4818     -5405.4526     -32.250463      0.82302827     54432.018      1            
     31400   300.35325      1094.5909     -1779.0321     -108.13742      1540.0268      6919.6378     -5445.1443     -32.759879      0.82087581     54574.746      1            
     31500   295.97437      1073.7318     -1751.9496     -94.544567      1464.4084      6919.0572     -5426.3014     -36.938214      0.8204169      54605.274      1            
     31600   299.55357      1041.8639     -1759.8598     -115.48918      1517.1719      6961.2303     -5522.4876     -38.701796      0.81981044     54645.668      1            
     31700   293.44648      1219.6079     -1746.2766     -74.841683      1608.283       6939.228      -5475.6191     -31.165713      0.81855978     54729.16       1            
     31800   304.68425      1010.5932     -1720.9718     -175.76772      1529.0519      6933.4592     -5519.0603     -36.118099      0.81712808     54825.052      1            
     31900   305.25481      1059.8731     -1758.5932     -125.77846      1574.8975      6881.1296     -5477.069      -34.713365      0.81531672     54946.854      1            
     32000   296.16574      959.01326     -1757.2549     -286.17147      1544.7668      6911.905      -5418.4647     -35.767486      0.81453564     54999.544      1            
     32100   293.7519       909.14288     -1729.2312     -232.68993      1519.7911      6909.4396     -5526.0564     -32.110213      0.81384954     55045.911      1            
     32200   298.05472      916.32737     -1759.851      -172.41355      1546.9017      6862.2162     -5526.7391     -33.786876      0.8128324      55114.793      1            
     32300   298.17995      1053.2385     -1751.3445     -107.66771      1543.5192      6983.5864     -5579.3866     -35.468273      0.81345895     55072.342      1            
     32400   303.22619      1038.8267     -1767.8647     -104.91977      1550.6438      6867.5025     -5474.1405     -32.394565      0.81323829     55087.284      1            
     32500   301.26479      1224.8863     -1720.5596      23.647794      1524.7791      6940.8509     -5508.8742     -34.957666      0.81332322     55081.532      1            
     32600   302.23581      62969.268      184.7621      -107.11956      61533.145      6808.5693     -5418.2495     -31.839478      0.81243628     55141.665      2            
     32700   307.59083      1135.9213     -1816.0888     -72.736746      1580.4043      6927.677      -5451.7822     -31.552214      0.84461506     53040.836      2            
     32800   301.86857      978.72668     -1761.874      -144.52728      1499.6118      6963.8911     -5541.602      -36.772982      0.84457065     53043.625      2            
     32900   297.54082      993.47111     -1816.4869     -101.45837      1542.6562      6837.2942     -5435.4132     -33.120798      0.84158874     53231.569      2            
     33000   296.30856      1030.6946     -1808.1887     -52.507436      1539.4799      6919.833      -5533.2935     -34.628489      0.8395809      53358.872      2            
     33100   296.83514      88283.713      1422.9855     -5.6294794      85516.914      6896.4792     -5515.4992     -31.537209      0.83728828     53504.976      3            
     33200   306.0293       1148.7383     -1807.9808      11.721418      1527.8655      6889.772      -5440.8065     -31.833333      0.8719224      51379.675      3            
     33300   300.71163      1073.4388     -1797.2555     -15.355119      1527.0626      6807.1241     -5413.197      -34.940251      0.86971257     51510.224      3            
     33400   295.65725      904.17535     -1799.2607     -156.81164      1518.6609      6827.148      -5451.3213     -34.239877      0.86417128     51840.521      3            
     33500   299.0944       872.79002     -1857.5577     -118.24718      1475.1557      6799.8473     -5390.8938     -35.514247      0.85977575     52105.551      3            
     33600   299.58191      1029.7917     -1809.5042     -13.538525      1500.8688      6826.3539     -5442.5664     -31.821867      0.85564693     52356.98       3            
     33700   301.00483      940.63266     -1801.377      -113.95541      1520.3092      6832.6897     -5463.0539     -33.979861      0.85169825     52599.72       3            
     33800   298.20826      995.68752     -1829.4844     -213.65044      1565.2467      6944.9454     -5439.3768     -31.992902      0.8477466      52844.906      3            
     33900   305.81323      950.2359      -1795.7927     -177.68062      1536.2009      6955.7933     -5533.0833     -35.201639      0.8451863      53004.987      3            
     34000   296.00417      1021.2719     -1781.5799     -128.52598      1502.0825      6880.1438     -5416.1684     -34.680225      0.84275354     53157.996      3            
     34100   300.44994      890.65811     -1795.9419     -150.89339      1477.4442      6763.736      -5368.5749     -35.111826      0.84066788     53289.879      3            
     34200   298.40134      63158.533      877.58523     -131.03783      61093.577      6855.4926     -5501.2464     -35.837401      0.83927956     53378.03       4            
     34300   303.915        1025.7552     -1819.0621     -56.85258       1490.426       6832.7366     -5388.9415     -32.551313      0.8698167      51504.057      4            
     34400   303.36088      922.5807      -1801.4326     -141.5614       1515.0174      6850.5022     -5469.9786     -29.966335      0.8689652      51554.526      4            
     34500   299.78049      176144.53      135.54951     -209.83652      175027.9       6725.6218     -5503.5559     -31.149768      0.86459359     51815.199      5            
     34600   303.29413      1344.3875     -1764.856      -95.619082      1593.1841      6958.8512     -5315.1299     -32.04276       0.91366554     49032.263      5            
     34700   299.91121      852.54444     -1848.3309     -131.03493      1458.4913      6800.0698     -5391.0232     -35.627634      0.90901833     49282.932      5            
     34800   302.70076      723.74353     -1867.2094     -118.45246      1418.5675      6689.0983     -5361.9485     -36.311867      0.90284393     49619.97       5            
     34900   298.78715      747.24421     -1849.4071     -147.62581      1489.2842      6745.0781     -5455.5248     -34.560374      0.89688882     49949.434      5            
     35000   296.55838      863.27917     -1851.0489     -13.708966      1451.0742      6604.9511     -5295.1293     -32.858889      0.88956072     50360.912      5            
     35100   300.4898       894.30275     -1862.1133     -63.688164      1443.22        6786.6702     -5373.9156     -35.870344      0.88247137     50765.487      5            
     35200   301.11049      900.95895     -1825.4914     -109.54295      1498.9637      6780.7827     -5407.4888     -36.26433       0.87648201     51112.389      5            
     35300   295.88969      45932.417     -364.03615     -131.63237      45049.216      6673.9386     -5261.4096     -33.659023      0.87122483     51420.813      6            
     35400   298.76101      427854.99      346.44768     -72.630661      426303.94      6668.6874     -5365.6069     -25.848682      0.89373145     50125.895      7            
     35500   315.36334      1433.0196     -1782.7878     -34.357981      1515.7462      6993.6583     -5226.8217     -32.417414      0.97793827     45809.731      7            
     35600   305.53649      921.03164     -1822.7476     -137.94694      1450.5466      6884.332      -5415.9644     -37.188009      0.96784661     46287.385      7            
     35700   300.31204      817.03055     -1909.5308     -29.797777      1459.2921      6522.7172     -5194.8152     -30.835052      0.95593559     46864.129      7            
     35800   299.73259      622.75087     -1891.6887     -104.7638       1444.1928      6643.1191     -5437.3003     -30.808228      0.94544809     47383.975      7            
     35900   292.08871      681.27148     -1925.6122     -108.27686      1421.7446      6671.567      -5348.8175     -29.333606      0.93560323     47882.572      7            
     36000   295.07321      734.00981     -1905.3009     -97.784691      1412.5789      6639.2409     -5280.4264     -34.297948      0.92694718     48329.711      7            
     36100   299.76126      877.83807     -1882.4688      3.3424504      1419.3603      6776.5661     -5406.9848     -31.977075      0.9186289      48767.341      7            
     36200   301.22317      885.57069     -1909.6485      25.903122      1493.36        6574.0162     -5266.7141     -31.346024      0.91049634     49202.932      7            
     36300   303.01907      325887.37      610.9684      -133.0593       324140.06      6583.8136     -5279.311      -35.097531      0.90343465     49587.526      8            
     36400   312.02609      894.24886     -1925.3901     -126.52782      1470.376       6747.0084     -5236.3444     -34.873238      0.9678817      46285.707      8            
     36500   304.79801      84882.753      363.14346     -77.93289       83320.256      6675.9944     -5361.4948     -37.213359      0.96076044     46628.782      9            
     36600   300.51337      833.95619     -1881.0269     -11.158738      1417.7133      6646.6157     -5304.2669     -33.920281      0.98457765     45500.819      9            
     36700   301.59418      624.73167     -1905.6517     -105.83964      1428.1023      6514.6641     -5274.7058     -31.837527      0.97505001     45945.427      9            
     36800   299.86743      374.98706     -1904.948      -284.29613      1351.1335      6546.8962     -5303.1583     -30.640223      0.96370988     46486.074      9            
     36900   295.59793      260399.61     -789.63502     -89.006449      260075.29      6393.8946     -5161.0188     -29.915791      0.95341623     46987.966      10           
     37000   308.32084      781.98739     -1919.0934     -104.92791      1382.9228      6774.9559     -5322.0452     -29.824717      1.0124045      44250.186      10           
     37100   306.85989      503.97983     -1906.9805     -203.54701      1385.4977      6556.4022     -5293.6896     -33.702952      1.0026281      44681.659      10           
     37200   302.51646      498.39756     -1921.1173     -175.15189      1340.5257      6560.0327     -5274.0921     -31.799536      0.99052925     45227.427      10           
     37300   296.6272       508.71676     -1914.737      -193.22874      1365.3388      6589.8935     -5308.7936     -29.756249      0.97835099     45790.406      10           
     37400   297.17229      546.34602     -1949.851      -163.57652      1385.4972      6471.2771     -5168.0383     -28.962552      0.96653968     46349.974      10           
     37500   301.68413      579.98786     -1989.1526     -146.06456      1439.5695      6554.8012     -5247.7772     -31.388449      0.95650207     46836.374      10           
     37600   300.7053       469.77984     -1926.3039     -281.74369      1395.6999      6582.0333     -5268.7906     -31.11526       0.94761947     47275.4        10           
     37700   302.37475      660.35258     -1922.5408     -116.17956      1393.108       6545.0607     -5207.7664     -31.329338      0.93922877     47697.739      10           
     37800   300.48039      704.33566     -1958.1312     -129.2046       1477.3877      6561.283      -5215.2366     -31.762607      0.93076429     48131.508      10           
     37900   307.03413      739.67152     -1908.9205     -45.909164      1434.3247      6701.5896     -5406.7755     -34.637657      0.92381459     48493.593      10           
     38000   297.54844      721.88802     -1890.0775     -111.2957       1477.4941      6601.0716     -5325.2791     -30.025448      0.91637808     48887.124      10           
     38100   302.74047      63010.846      228.1192      -195.97307      61782.478      6467.5883     -5239.1742     -32.191298      0.90947286     49258.302      11           
     38200   297.77758      714.01441     -1911.9889     -83.657887      1422.8397      6631.1898     -5315.792      -28.576429      0.93556398     47884.581      11           
     38300   298.78842      682.52211     -1925.2686     -62.408155      1422.8794      6575.8132     -5298.0807     -30.413023      0.93234454     48049.929      11           
     38400   297.01629      511.10337     -1926.5016     -156.47358      1388.4529      6588.2248     -5350.2959     -32.303303      0.92617005     48370.263      11           
     38500   290.10053      398.37578     -1908.062      -284.03459      1426.2739      6489.0415     -5294.6902     -30.152792      0.92049054     48668.712      11           
     38600   294.62881      454.76598     -1919.2954     -256.00007      1411.1542      6519.7912     -5270.9258     -29.958254      0.91471381     48976.071      11           
     38700   295.87503      563.84189     -1873.3797     -215.63029      1418.24        6510.8724     -5245.3076     -30.952891      0.90885126     49291.992      11           
     38800   299.3305       553.25506     -1888.2228     -283.70921      1460.0274      6516.5911     -5223.0826     -28.348794      0.90328527     49595.726      11           
     38900   303.25034      749.78021     -1883.5884     -96.255341      1460.1865      6563.2263     -5265.0942     -28.694594      0.89811105     49881.458      11           
     39000   299.94251      683.07868     -1862.6129     -175.49356      1451.0153      6719.3378     -5418.8302     -30.337716      0.89306597     50163.248      11           
     39100   296.29222      654.69313     -1870.9499     -192.65514      1480.2144      6563.4648     -5293.4626     -31.918532      0.88861444     50414.541      11           
     39200   291.54324      615.2442      -1852.7646     -201.06185      1467.9594      6535.3891     -5304.0335     -30.244342      0.88550244     50591.717      11           
     39300   299.98205      614.81266     -1875.2157     -102.31337      1461.4776      6514.5438     -5351.5946     -32.085175      0.88300844     50734.611      11           
     39400   301.51972      752.55784     -1886.1019     -76.45413       1504.0866      6535.9297     -5292.3691     -32.533236      0.88102119     50849.048      11           
     39500   296.49909      766.95298     -1863.7081     -167.54971      1528.7048      6591.4814     -5288.8424     -33.132942      0.87867437     50984.859      11           
     39600   299.17717      740.85878     -1847.4784     -135.80419      1524.885       6594.0191     -5363.578      -31.184769      0.87616769     51130.725      11           
     39700   297.79178      792.84522     -1848.9753     -36.338523      1483.8652      6454.6167     -5230.4636     -29.859212      0.87469193     51216.992      11           
     39800   301.44911      657.25735     -1880.8141     -27.601345      1459.3658      6557.218      -5423.1402     -27.770875      0.87283072     51326.206      11           
     39900   296.03119      579.55547     -1838.6649     -145.33018      1435.0695      6558.1338     -5398.7143     -30.93847       0.87130731     51415.946      11           
     40000   296.29543      682.03533     -1852.0981     -151.30325      1546.4         6506.7782     -5336.0384     -31.703017      0.86997633     51494.607      11           
     40100   299.69249      713.88271     -1812.2016     -165.11142      1532.9506      6608.1123     -5419.1734     -30.693856      0.86863425     51574.169      11           
     40200   305.61095      633.90541     -1832.5872     -176.51631      1541.2991      6492.9664     -5358.3759     -32.880539      0.86654333     51698.614      11           
     40300   298.24954      827.51349     -1847.0916     -36.492912      1524.7161      6580.596      -5363.5033     -30.710749      0.86408843     51845.491      11           
     40400   298.05535      657.90335     -1812.2935     -112.90756      1509.9431      6499.4854     -5397.3301     -28.993885      0.86284974     51919.919      11           
     40500   297.59276      615.08858     -1791.0471     -158.80071      1473.1254      6554.9909     -5429.7281     -33.451851      0.86134404     52010.68       11           
     40600   302.6457       737.92016     -1826.2822     -90.850788      1525.888       6541.7773     -5380.2465     -32.365723      0.85982143     52102.783      11           
     40700   300.24917      781.21547     -1842.7275     -146.45291      1566.6678      6668.8034     -5433.8872     -31.188171      0.85906456     52148.687      11           
     40800   298.4504       747.83253     -1834.3543     -166.15817      1506.3974      6683.0546     -5409.2056     -31.901391      0.85871682     52169.805      11           
     40900   303.14833      648.1862      -1835.675      -139.18189      1515.0872      6535.1878     -5397.3644     -29.867579      0.85890338     52158.473      11           
     41000   296.04161      698.28974     -1840.829      -123.43061      1522.2456      6492.1442     -5317.42       -34.420424      0.86009331     52086.313      11           
     41100   294.72012      683.52853     -1813.4542     -147.60242      1500.5581      6619.6008     -5440.4781     -35.095571      0.85961514     52115.286      11           
     41200   305.81749      716.91559     -1843.8542     -104.91731      1625.0617      6514.6408     -5439.3525     -34.662939      0.85817518     52202.732      11           
     41300   301.7539       655.48574     -1805.4029     -257.40457      1586.975       6571.5993     -5407.0177     -33.26332       0.85715399     52264.925      11           
     41400   299.35678      665.7783      -1813.006      -195.37045      1553.9908      6534.6457     -5381.1267     -33.354978      0.85659737     52298.887      11           
     41500   295.43113      659.26602     -1815.042      -182.55457      1542.4388      6561.8308     -5418.6199     -28.787115      0.8563265      52315.43       11           
     41600   302.06993      588.30576     -1852.9789     -181.7599       1554.0207      6461.176      -5360.1275     -32.024621      0.85678256     52287.583      11           
     41700   301.30154      703.0377      -1847.9273     -108.67936      1529.3479      6638.8446     -5472.9225     -35.625542      0.85707277     52269.878      11           
     41800   297.25539      684.35294     -1811.719      -202.16034      1567.0135      6518.5183     -5355.6473     -31.652178      0.85758575     52238.612      11           
     41900   298.68266      771.37753     -1799.1821     -109.3802       1573.1524      6557.5304     -5418.2131     -32.529894      0.85789138     52220.001      11           
     42000   301.08882      695.79245     -1847.8429     -130.89142      1557.606       6492.481      -5343.9279     -31.63228       0.85715024     52265.154      11           
     42100   300.40155      755.40311     -1810.2093     -64.416628      1491.1274      6634.3939     -5461.9544     -33.537853      0.8567523      52289.43       11           
     42200   297.12186      733.34978     -1852.1753     -151.60216      1565.376       6562.3082     -5358.0572     -32.499767      0.85583881     52345.241      11           
     42300   306.66411      625.08657     -1828.1645     -184.06063      1516.5599      6634.4923     -5482.0028     -31.73771       0.85565435     52356.526      11           
     42400   303.09251      748.03186     -1840.1976     -126.79543      1544.205       6544.545      -5342.2823     -31.44275       0.85636102     52313.321      11           
[...]
     42900   304.21207      724.02272     -1854.7865     -159.77283      1539.0169      6570.261      -5340.0156     -30.680316      0.85956063     52118.592      11           
     43000   310.82433      580.03136     -1840.9627     -200.77811      1521.0207      6564.0079     -5432.4188     -30.837603      0.86093816     52035.2        11           
     43100   302.86465      575.44893     -1834.8967     -249.41783      1543.8176      6556.8129     -5411.1332     -29.733883      0.86034876     52070.847      11           
     43200   297.82558      603.861       -1833.4988     -197.81919      1532.597       6622.7799     -5485.0762     -35.121778      0.85937816     52129.658      11           
     43300   297.41931      655.33705     -1856.2532     -97.340372      1483.9032      6615.0214     -5459.3138     -30.680156      0.85700335     52274.112      11           
     43400   298.8893       726.80981     -1864.7865     -48.985326      1582.7726      6464.5254     -5377.4021     -29.314238      0.85477588     52410.334      11           
     43500   299.47996      668.11968     -1849.0926     -200.70327      1572.9073      6576.9857     -5398.0776     -33.899874      0.85409154     52452.328      11           
     43600   307.30511      723.31588     -1822.3266     -88.750239      1564.2458      6612.2044     -5507.3844     -34.673014      0.85510298     52390.286      11           
     43700   300.74828      675.05448     -1877.0384     -101.25379      1583.694       6497.2144     -5394.209      -33.352754      0.8553075      52377.758      11           
     43800   299.15728      788.54801     -1807.177       58.142744      1527.8614      6474.4608     -5435.2827     -29.457265      0.85547837     52367.296      11           
     43900   299.90779      707.91919     -1857.25       -46.431057      1542.2151      6549.0831     -5449.0449     -30.652995      0.85459196     52421.613      11           
     44000   303.27418      677.10969     -1862.9939     -72.610207      1539.5812      6499.9345     -5396.9156     -29.886218      0.85418929     52446.325      11           
     44100   301.10712      668.73698     -1850.2351     -152.75918      1613.3865      6527.4672     -5437.8081     -31.314314      0.8549414      52400.187      11           
     44200   298.87699      834.66256     -1833.2088     -30.031259      1593.1327      6586.9499     -5448.8733     -33.30677       0.85556606     52361.929      11           
     44300   297.57589      764.48013     -1864.6179     -82.012919      1648.7094      6491.8155     -5395.3673     -34.046649      0.85417402     52447.262      11           
     44400   299.42282      636.70513     -1851.8056     -100.74193      1576.5642      6544.8189     -5500.9183     -31.212097      0.85300377     52519.216      11           
     44500   292.14747      597.78832     -1813.2983     -212.4763       1523.5794      6541.0889     -5408.6404     -32.46493       0.85138217     52619.248      11           
     44600   299.46977      616.0139      -1828.4377     -207.92394      1553.5753      6684.1587     -5550.2852     -35.073227      0.85030977     52685.61       11           
     44700   299.90319      836.68        -1834.3247     -39.009961      1610.1944      6551.5953     -5423.4115     -28.363522      0.84941113     52741.349      11           
     44800   303.34098      565.64961     -1819.9145     -223.30996      1568.4032      6515.8245     -5444.9872     -30.36639       0.848618       52790.642      11           
     44900   298.70653      675.82526     -1822.7448     -108.58542      1597.3896      6525.2327     -5482.9194     -32.547428      0.84744712     52863.581      11           
     45000   294.16521      755.39281     -1822.9101     -63.577472      1614.0547      6621.4763     -5558.8676     -34.782985      0.84655554     52919.256      11           
     45100   300.68963      777.16824     -1810.2982     -52.18017       1557.3716      6650.9961     -5538.0217     -30.699474      0.84600629     52953.612      11           
     45200   301.77293      871.91971     -1846.396      -47.438965      1631.2697      6602.5647     -5440.194      -27.885624      0.84646233     52925.083      11           
     45300   304.40099      684.42789     -1828.2538     -136.49368      1533.3683      6621.3886     -5474.1652     -31.416222      0.84679575     52904.244      11           
     45400   298.70972      736.1864      -1802.1736     -81.052248      1584.5579      6617.903      -5549.8239     -33.224709      0.84707471     52886.821      11           
     45500   299.76048      587.80855     -1834.079      -191.08204      1562.9252      6560.131      -5477.0937     -32.99291       0.84690755     52897.26       11           
     45600   300.95072      557.51939     -1840.492      -214.72683      1590.6923      6553.2141     -5499.3118     -31.85649       0.84741008     52865.891      11           
     45700   296.1629       770.29571     -1832.1441     -101.80172      1621.5975      6659.358      -5543.5333     -33.180698      0.8491007      52760.632      11           
     45800   306.24273      715.44242     -1856.0179     -55.637345      1587.2465      6620.4181     -5548.9756     -31.591441      0.84994487     52708.23       11           
     45900   302.35575      666.81709     -1869.1876     -144.62393      1603.6398      6526.7198     -5416.2544     -33.47661       0.85087733     52650.467      11           
     46000   293.77498      751.06288     -1850.4345     -82.080489      1601.7008      6563.6303     -5446.0325     -35.720705      0.85096975     52644.749      11           
     46100   295.04824      641.4224      -1829.4369     -136.64313      1549.1944      6571.0054     -5480.6314     -32.065996      0.85180674     52593.02       11           
     46200   298.32188      618.35148     -1835.3434     -124.97696      1596.5037      6593.9996     -5577.7422     -34.089224      0.85272395     52536.45       11           
     46300   301.34139      800.20839     -1817.8292     -12.852064      1599.7972      6605.6125     -5544.1116     -30.408538      0.85293739     52523.304      11           
     46400   304.64654      675.23752     -1841.5693     -156.09426      1603.7438      6598.9185     -5495.5227     -34.238445      0.85269099     52538.481      11           
     46500   300.6844       695.62868     -1821.9169     -122.3696       1601.5829      6603.8678     -5531.4853     -34.050106      0.85319743     52507.295      11           
     46600   301.51908      484.1308      -1905.6107     -227.71778      1562.533       6516.848      -5429.3108     -32.61093       0.85413267     52449.802      11           
     46700   294.8377       719.76966     -1851.8424     -79.353143      1602.7866      6577.76       -5496.2336     -33.347829      0.85810724     52206.866      11           
     46800   299.98582      621.08256     -1874.8448     -130.23445      1603.0799      6599.0947     -5546.5853     -29.427523      0.86040151     52067.655      11           
     46900   297.91094      760.92398     -1827.747      -86.114596      1626.4354      6556.8369     -5477.0712     -31.415469      0.86263897     51932.605      11           
     47000   306.28863      600.45661     -1869.2991     -228.68274      1586.3877      6570.3826     -5425.4054     -32.926469      0.86286592     51918.946      11           
     47100   304.21912      502.90439     -1869.4098     -313.98707      1599.0881      6617.3615     -5497.3328     -32.815574      0.86219069     51959.607      11           
     47200   300.6035       471.42145     -1889.8853     -275.92826      1583.6379      6508.9194     -5423.2051     -32.117158      0.86056997     52057.463      11           
     47300   298.47645      467.18819     -1877.5064     -298.77053      1575.4893      6586.3659     -5489.3157     -29.074404      0.85880365     52164.53       11           
     47400   301.11565      510.74962     -1856.0423     -231.69829      1570.9468      6645.5303     -5584.3717     -33.615192      0.85756576     52239.829      11           
     47500   306.07571      494.89326     -1866.7906     -247.22614      1536.3479      6602.5634     -5499.3127     -30.688468      0.85714522     52265.46       11           
     47600   304.36184      634.82427     -1872.6522     -183.2112       1644.2878      6588.834      -5508.6378     -33.79624       0.85792582     52217.905      11           
     47700   302.76792      604.86809     -1896.6012     -136.96965      1606.9556      6619.8213     -5559.5052     -28.832803      0.85885103     52161.652      11           
     47800   298.24896      480.23596     -1880.6506     -220.91932      1607.1927      6571.4276     -5564.9611     -31.853331      0.86178612     51983.999      11           
     47900   294.13823      570.39335     -1890.3287     -176.71183      1569.2078      6558.9487     -5458.4989     -32.223761      0.86451572     51819.866      11           
     48000   302.91765      32482.48       678.01116     -202.08706      30919.448      6649.5579     -5528.8359     -33.61418       0.86766621     51631.709      12           
     48100   308.35615      587.57447     -1922.1077     -171.7761       1587.1676      6661.037      -5532.9822     -33.764065      0.89271164     50183.158      12           
     48200   303.95429      525.10592     -1905.3847     -178.12371      1566.1718      6538.8607     -5464.3603     -32.057923      0.89656556     49967.444      12           
     48300   299.75484      61013.87      -121.80853     -253.67543      60418.623      6500.4833     -5495.3481     -34.403899      0.89352279     50137.601      13           
     48400   304.6948       280.66095     -1982.6621     -307.40944      1517.1628      6481.432      -5396.9898     -30.872451      0.92123653     48629.301      13           
     48500   299.79333      375.57297     -1931.1896     -223.20416      1487.8841      6473.5796     -5401.5354     -29.961641      0.91969053     48711.048      13           
     48600   298.10731      332.11172     -1960.9321     -212.79563      1540.2519      6398.8996     -5402.2269     -31.085214      0.91504383     48958.408      13           
     48700   300.47676      359.93845     -1938.1978     -208.33115      1536.5088      6473.7021     -5473.9607     -29.782753      0.91124524     49162.494      13           
     48800   308.3205       306.30571     -1982.9516     -267.68425      1543.7757      6445.308      -5401.6525     -30.489676      0.90781155     49348.446      13           
     48900   305.45127      471.26085     -1978.2985     -182.73257      1555.0424      6507.7547     -5399.8806     -30.624556      0.90387044     49563.618      13           
     49000   305.38507      286.69764     -1941.9817     -291.62904      1486.2618      6457.3807     -5389.366      -33.968113      0.9009165      49726.128      13           
     49100   295.25203      406.82658     -1936.2036     -217.6106       1495.1492      6496.4526     -5399.0223     -31.938776      0.897964       49889.627      13           
     49200   300.74908      291.93511     -1930.9704     -307.57978      1476.2173      6470.2933     -5387.0862     -28.939198      0.89568322     50016.667      13           
     49300   300.43072      374.44356     -1885.5601     -332.73099      1522.6969      6535.7973     -5435.6245     -30.135163      0.89299779     50167.077      13           
     49400   301.22604      459.53944     -1911.9553     -266.70406      1574.6187      6593.8484     -5497.999      -32.269331      0.89014116     50328.073      13           
     49500   298.01714      383.48225     -1914.2008     -305.90467      1550.0854      6520.316      -5437.2958     -29.51779       0.88712931     50498.939      13           
     49600   299.33145      305.91387     -1913.4991     -305.28893      1545.1903      6425.6677     -5419.0761     -27.08012       0.88442931     50653.103      13           
     49700   298.66308      404.30845     -1866.6972     -249.77886      1523.6575      6487.4547     -5459.8349     -30.492717      0.88303289     50733.205      13           
     49800   303.16236      391.26508     -1928.7041     -299.57222      1586.9133      6475.3139     -5409.0137     -33.672142      0.8806527      50870.325      13           
     49900   310.56508      394.95121     -1902.096      -335.60157      1603.6086      6492.5106     -5429.8        -33.670329      0.8791773      50955.694      13           
     50000   306.71073      532.50752     -1852.9598     -366.64066      1644.4195      6613.9017     -5477.5552     -28.658093      0.8772233      51069.197      13           
     50100   307.33718      523.25999     -1870.9566     -232.0092       1553.1746      6514.1214     -5410.6229     -30.447343      0.87390065     51263.366      13           
     50200   301.25367      555.3108      -1865.1289     -177.44214      1548.5131      6530.779      -5447.9938     -33.416395      0.87171575     51391.855      13           
     50300   301.97659      460.43349     -1908.1859     -180.14072      1560.9337      6495.1373     -5475.6321     -31.678748      0.86995658     51495.776      13           
     50400   301.17781      592.32921     -1897.6857     -12.657065      1569.3256      6526.0903     -5562.5022     -30.241749      0.87002955     51491.457      13           
     50500   292.42036      212362.68      246.03701     -151.03398      211314.26      6437.3849     -5449.8062     -34.165636      0.86960657     51516.503      14           
     50600   306.63782      525.17152     -1996.1974     -158.09548      1514.7785      6534.4932     -5338.1418     -31.665458      0.92107836     48637.652      14           
     50700   302.62537      259.76213     -1921.3675     -327.91492      1506.9078      6489.9413     -5454.9742     -32.830407      0.91902112     48746.528      14           
     50800   302.93474      161970.78      751.03907     -107.91526      160356.34      6513.6345     -5511.3552     -30.955533      0.91580731     48917.593      15           
     50900   296.42896      385.7735      -1994.6247     -230.97605      1539.9299      6430.476      -5332.1462     -26.885517      0.95884644     46721.86       15           
     51000   296.48782      275.85696     -1951.2904     -249.65137      1455.0145      6443.4512     -5392.511      -29.155991      0.9549216      46913.892      15           
     51100   303.29394      57.29177      -1960.452      -346.74976      1472.7471      6297.3846     -5371.1157     -34.52245       0.94945873     47183.819      15           
     51200   299.89984      167.99578     -1998.726      -270.76619      1453.4326      6412.2447     -5396.4177     -31.771647      0.94337864     47487.92       15           
     51300   297.70334      351.48654     -1972.5533     -205.15434      1459.9638      6380.6449     -5280.3337     -31.080838      0.93708231     47806.995      15           
     51400   305.88342      313.34294     -1960.1385     -255.28201      1519.0006      6383.9135     -5342.7645     -31.38622       0.93128644     48104.522      15           
     51500   300.57987      407.15179     -1971.0357     -158.99164      1534.5338      6469.1365     -5435.6447     -30.846548      0.92503364     48429.687      15           
     51600   296.8538       339.84702     -1957.1828     -179.22431      1496.1068      6377.4511     -5367.6938     -29.609989      0.92107827     48637.657      15           
     51700   294.1732       341.4264      -1968.0669     -215.96533      1533.7819      6436.2897     -5415.4627     -29.150331      0.91710925     48848.149      15           
     51800   305.2086       229.57589     -1946.7781     -229.8135       1483.9073      6435.2615     -5483.4171     -29.584203      0.91291781     49072.423      15           
     51900   303.05598      347.62555     -1969.4626     -160.82421      1501.3751      6363.6468     -5352.3958     -34.713748      0.90973742     49243.978      15           
     52000   294.45116      422.74943     -1946.9916     -203.5515       1548.1071      6374.963      -5320.4973     -29.280393      0.90680556     49403.192      15           
     52100   299.25962      380.13362     -1955.0143     -196.49226      1525.2992      6408.5548     -5374.1472     -28.066595      0.90437787     49535.809      15           
     52200   301.68642      287739.62      609.35353     -149.16486      286427.4       6268.3168     -5383.5384     -32.745306      0.90218273     49656.337      16           
     52300   319.21176      692.46545     -1975.1087     -85.459424      1573.4686      6553.2502     -5342.3162     -31.36908       0.96367368     46487.821      16           
     52400   309.9651       463.0202      -1954.2443     -140.27962      1485.8807      6460.1636     -5354.8899     -33.6102        0.95939504     46695.144      16           
     52500   300.81031      309.78918     -1974.1299     -236.1093       1529.3935      6427.5875     -5406.5579     -30.394702      0.95370303     46973.835      16           
     52600   300.70067      243.65801     -2000.7784     -179.88729      1485.6574      6292.3606     -5325.5559     -28.138285      0.9485629      47228.38       16           
     52700   297.60794      257.46564     -2011.8413     -174.69499      1494.3387      6220.6074     -5240.6007     -30.343413      0.94272596     47520.797      16           
     52800   297.05696      265.13628     -1972.7147     -256.66911      1497.0369      6474.8479     -5446.2967     -31.068002      0.93763268     47778.933      16           
     52900   300.70152      361.3702      -1942.5818     -188.98914      1494.0113      6447.3277     -5419.7369     -28.660928      0.93226854     48053.846      16           
     53000   299.51153      326.9796      -1971.996      -240.14305      1512.2068      6425.4681     -5366.4256     -32.130652      0.92733004     48309.757      16           
     53100   298.52061      175.99991     -1960.0838     -367.65533      1525.2612      6350.1626     -5346.7559     -24.928946      0.92233862     48571.195      16           
     53200   299.14525      146.93637     -1977.5259     -332.89977      1483.0544      6326.8605     -5323.126      -29.426966      0.91758215     48822.973      16           
     53300   300.84901      174.18626     -1960.3531     -240.8116       1546.2812      6352.6834     -5495.039      -28.574725      0.91417871     49004.739      16           
     53400   295.59037      253.28964     -1947.8398     -217.76425      1552.9485      6284.7649     -5388.7299     -30.089922      0.91078596     49187.285      16           
     53500   303.14489      185.84927     -1933.0836     -292.80651      1517.1225      6381.7849     -5455.9659     -31.202089      0.90751337     49364.66       16           
     53600   302.30016      231.29414     -1940.1495     -302.72269      1533.7758      6314.3263     -5344.801      -29.134772      0.90398573     49557.297      16           
     53700   300.2182       312.985       -1937.9269     -249.77408      1525.8487      6422.689      -5416.7484     -31.103318      0.90060446     49743.357      16           
     53800   298.27224      333.199       -1922.5045     -200.83078      1534.9526      6315.1517     -5362.4511     -31.118907      0.89775556     49901.21       16           
     53900   296.72956      225.17013     -1935.4491     -225.02401      1497.2093      6383.2763     -5464.8382     -30.004197      0.89509774     50049.382      16           
     54000   295.03185      332.21511     -1953.777      -136.58339      1538.5468      6232.9824     -5322.0922     -26.86152       0.89290035     50172.552      16           
