LAMMPS (22 Dec 2022)
Reading data file ...
  orthogonal box = (5.3337238 5.3337238 5.3337238) to (43.132705 43.132705 43.132705)
  4 by 2 by 3 MPI processor grid
  reading atoms ...
  5010 atoms
  reading velocities ...
  5010 velocities
  scanning bonds ...
  4 = max bonds/atom
  scanning angles ...
  6 = max angles/atom
  scanning dihedrals ...
  19 = max dihedrals/atom
  scanning impropers ...
  4 = max impropers/atom
  reading bonds ...
  5405 bonds
  reading angles ...
  11200 angles
  reading dihedrals ...
  18384 dihedrals
  reading impropers ...
  7200 impropers
Finding 1-2 1-3 1-4 neighbors ...
  special bond factors lj:    0        0        1       
  special bond factors coul:  0        0        1       
     4 = max # of 1-2 neighbors
     9 = max # of 1-3 neighbors
    13 = max # of special neighbors
  special bonds CPU = 0.004 seconds
  read_data CPU = 0.506 seconds
PPPM initialization ...
  using 12-bit tables for long-range coulomb (../kspace.cpp:342)
  G vector (1/distance) = 0.093993702
  grid = 3 3 3
  stencil order = 5
  estimated absolute RMS force accuracy = 0.34481187
  estimated relative force accuracy = 0.0010383907
  using double precision KISS FFT
  3d grid and FFT values/proc = 252 3
Generated 28 of 28 mixed pair_coeff terms from sixthpower/sixthpower mixing rule
Neighbor list info ...
  update: every = 1 steps, delay = 0 steps, check = yes
  max neighbors/atom: 2000, page size: 100000
  master list distance cutoff = 12
  ghost atom cutoff = 12
  binsize = 6, bins = 7 7 7
  1 neighbor lists, perpetual/occasional/extra = 1 0 0
  (1) pair lj/class2/coul/long, perpetual
      attributes: half, newton on
      pair build: half/bin/newton
      stencil: half/bin/3d
      bin: standard
Setting up cg style minimization ...
  Unit style    : real
  Current step  : 0
WARNING: Inconsistent image flags (../domain.cpp:815)
  PPPM/cg optimization cutoff: 1e-05
  Total charged atoms: 100.0%
  Min/max charged atoms/proc: 100.0% 100.0%
Per MPI rank memory allocation (min/avg/max) = 17.92 | 17.92 | 17.93 Mbytes
   Step          Temp          E_pair         E_mol          TotEng         Press     
         0   602.45734      19.381366      13382.177      22396.775      512.79987    
        54   602.45734     -600.84826      5194.2918      13588.66       4408.2648    
Loop time of 0.687843 on 24 procs for 54 steps with 5010 atoms

99.4% CPU use with 24 MPI tasks x no OpenMP threads

Minimization stats:
  Stopping criterion = linesearch alpha is zero
  Energy initial, next-to-last, final = 
      13401.5583510703   4593.44353562603   4593.44353562603
  Force two-norm initial, final = 3429.1693 79.526571
  Force max component initial, final = 153.61606 8.6042139
  Final line search alpha, max atom move = 1.8324833e-12 1.5767078e-11
  Iterations, force evaluations = 54 165

MPI task timing breakdown:
Section |  min time  |  avg time  |  max time  |%varavg| %total
---------------------------------------------------------------
Pair    | 0.32181    | 0.41018    | 0.46293    |   6.4 | 59.63
Bond    | 0.10367    | 0.1304     | 0.16883    |   4.1 | 18.96
Kspace  | 0.037427   | 0.12513    | 0.23619    |  15.0 | 18.19
Neigh   | 0.0027722  | 0.0027884  | 0.0028022  |   0.0 |  0.41
Comm    | 0.015229   | 0.015558   | 0.015954   |   0.2 |  2.26
Output  | 0          | 0          | 0          |   0.0 |  0.00
Modify  | 0          | 0          | 0          |   0.0 |  0.00
Other   |            | 0.00379    |            |       |  0.55

Nlocal:         208.75 ave         234 max         171 min
Histogram: 1 1 0 3 2 4 4 4 2 3
Nghost:        4649.17 ave        4719 max        4565 min
Histogram: 2 1 3 1 3 5 2 1 3 3
Neighs:        69991.8 ave       78810 max       56396 min
Histogram: 2 1 1 1 2 4 4 2 2 5

Total # of neighbors = 1679804
Ave neighs/atom = 335.29022
Ave special neighs/atom = 6.548503
Neighbor list builds = 1
Dangerous builds = 0
PPPM initialization ...
  using 12-bit tables for long-range coulomb (../kspace.cpp:342)
  G vector (1/distance) = 0.093993702
  grid = 3 3 3
  stencil order = 5
  estimated absolute RMS force accuracy = 0.34481187
  estimated relative force accuracy = 0.0010383907
  using double precision KISS FFT
  3d grid and FFT values/proc = 252 3
Generated 28 of 28 mixed pair_coeff terms from sixthpower/sixthpower mixing rule
Setting up Verlet run ...
  Unit style    : real
  Current step  : 54
  Time step     : 0.25
WARNING: Inconsistent image flags (../domain.cpp:815)
Per MPI rank memory allocation (min/avg/max) = 16.79 | 16.8 | 16.8 Mbytes
   Step          Temp          PotEng         E_vdwl         E_coul         E_bond        E_angle        E_dihed        E_impro        Density         Volume    
        54   602.45734      4593.4435     -1217.3001      1428.5458      345.48696      11835.994     -6964.5954     -22.593592      0.94862657     54005.784    
     20000   603.31488      13626.226     -420.46708      1478.0082      3908.9975      16209.665     -6698.4563     -39.899611      0.91017778     56287.159    
     40000   596.74234      13675.355     -541.99049      1481.1576      3912.5874      16357.913     -6685.3671     -37.410109      0.95124065     53857.372    
     60000   593.32138      13473.041     -479.65668      1443.6457      3895.5846      16187.191     -6718.7737     -42.657875      0.92708647     55260.564    
     80000   603.26625      13457.647     -455.34119      1437.2472      3780.9893      16197.84      -6658.5601     -32.829638      0.9233739      55482.748    
    100000   597.91159      13288.78      -477.74588      1477.1301      3795.6112      16000.514     -6654.5719     -40.745159      0.93754096     54644.356    
    120000   601.21087      13410.264     -508.62207      1470.8875      3915.2003      16005.292     -6617.137      -43.551409      0.92828046     55189.486    
    140000   606.21333      13217.804     -593.4813       1482.0044      3830.6152      15990.927     -6637.1715     -43.136368      0.96119572     53299.573    
    160000   603.59223      13262.428     -517.77786      1455.126       3765.634       16100.115     -6688.1236     -39.69422       0.9500645      53924.046    
    180000   593.22375      13424.435     -523.44029      1463.4568      3919.4914      16201.113     -6783.7349     -40.594495      0.95594244     53592.476    
    200000   607.81559      13371.973     -507.12069      1438.056       3881.664       15992.197     -6574.8204     -46.040142      0.9385369      54586.369    
    220000   599.5377       13322.896     -581.29704      1468.6546      3850.0175      16104.854     -6668.7975     -38.130726      0.93186998     54976.899    
    240000   596.64658      13464.879     -424.53283      1498.4938      3902.462       16020.902     -6684.9511     -35.497055      0.93345625     54883.473    
    260000   604.91107      13357.331     -564.24972      1436.1339      3816.0576      16218.752     -6694.1238     -43.249001      0.9540573      53698.37     
    280000   595.38821      13417.388     -513.17558      1495.4697      3776.1989      16232.333     -6716.9803     -44.045629      0.94729001     54081.982    
    300000   609.9086       13545.545     -480.32856      1441.3155      3929.6169      16097.084     -6590.7598     -39.124286      0.93289001     54916.787    
    320000   591.54391      13428.22      -489.79349      1467.4082      3832.026       16082.467     -6610.1194     -41.618959      0.93777838     54630.521    
    340000   583.36343      13418.656     -476.45468      1467.8025      3857.0126      16043.34      -6611.2434     -49.340033      0.94031217     54483.312    
    360000   602.89358      13370.912     -499.94881      1451.9684      3749.3976      16167.037     -6638.6912     -46.280271      0.95136197     53850.504    
    380000   599.17628      13394.038     -490.69491      1483.1192      3851.7644      16098.573     -6689.1346     -47.299539      0.95205578     53811.26     
    400000   596.33584      13192.256     -504.67314      1465.547       3822.2397      16001.681     -6739.5961     -41.040014      0.95425355     53687.326    
    420000   592.72475      13268.269     -583.8102       1463.7684      3719.9389      16239.839     -6718.3774     -40.540652      0.95943781     53397.23     
    440000   601.572        13552.041     -416.23433      1478.0378      3881.1914      16146.025     -6681.9233     -42.395711      0.92330345     55486.981    
    460000   594.58811      13272.871     -548.02615      1467.6858      3743.53        16051.727     -6595.6654     -35.048901      0.94765947     54060.898    
    480000   603.12764      13394.667     -561.14857      1479.1381      3939.0484      16043.541     -6665.8992     -27.913696      0.94218956     54374.75     
    500000   601.62385      13501.057     -526.52771      1484.8824      3897.5264      16276.058     -6782.2089     -36.70343       0.9465645      54123.434    
    520000   592.25579      13559.419     -524.49054      1472.6019      3923.5562      16323.223     -6784.9955     -39.413227      0.94504162     54210.651    
    540000   586.89527      13059.338     -529.49379      1491.1253      3752.1145      15976.872     -6784.5654     -34.744426      0.936626       54697.736    
    560000   608.30619      13284.71      -516.40946      1489.1326      3867.8987      15937.682     -6636.6726     -44.905856      0.93865552     54579.471    
    580000   601.86711      13423.988     -415.6769       1461.8113      3838.1337      16144.792     -6748.4734     -44.099526      0.91893829     55750.557    
    600000   602.51108      13338.3       -607.36953      1427.1013      3942.5734      16083.914     -6665.3202     -30.023959      0.93224965     54954.509    
    620000   601.41819      13496.58      -419.28178      1443.4347      3866.0414      16072.776     -6606.0656     -48.3772        0.92824368     55191.673    
    640000   596.48264      13188.755     -491.1994       1468.1182      3679.9685      16080.815     -6693.7419     -42.689651      0.93052772     55056.202    
    660000   600.90949      13579.927     -461.20405      1516.915       3893.1568      16222.898     -6744.5472     -34.969558      0.93232848     54949.862    
    680000   593.20001      13477.809     -462.71969      1480.654       3837.6171      16299.08      -6828.5422     -36.820076      0.92499909     55385.267    
    700000   590.88275      13248.045     -513.22635      1473.7909      3854.4166      15912.818     -6624.3129     -43.336825      0.93151959     54997.578    
    720000   602.20558      13405.929     -548.57703      1465.1897      3861.1289      16143.381     -6669.5715     -33.160098      0.93033425     55067.651    
    740000   596.93273      13523.413     -475.74762      1455.831       3902.8365      16180.553     -6683.967      -44.232725      0.93187551     54976.573    
    760000   610.35364      13395.364     -514.90569      1493.7197      3949.3483      15912.554     -6590.2168     -42.915823      0.93831524     54599.264    
    780000   611.06501      13562.512     -498.7102       1483.5825      3912.9662      16203.761     -6685.4156     -41.293445      0.94411229     54264.013    
    800000   595.93933      13441.491     -530.14448      1472.4113      3817.6298      16164.037     -6621.5398     -48.158492      0.94188546     54392.305    
    820000   601.49307      13720.443     -403.90281      1474.5103      3946.5713      16324.357     -6775.6379     -33.779451      0.91283818     56123.114    
    840000   599.58528      13516.266     -509.6569       1499.1564      3868.2785      16221.198     -6708.2839     -42.800056      0.93302441     54908.876    
    860000   602.26017      13478.607     -543.49216      1446.4652      3965.7868      16133.741     -6664.8397     -46.583531      0.9367719      54689.217    
    880000   599.82118      13558.111     -458.11898      1455.6294      3986.4171      16122.382     -6693.0188     -43.923627      0.94029341     54484.399    
    900000   604.18254      13446.442     -580.33608      1450.862       3943.9887      16226.55      -6743.8775     -38.430878      0.93760657     54640.532    
    920000   601.48943      13481.279     -480.87089      1461.3783      3922.4785      16142.278     -6698.8371     -53.322962      0.93098228     55029.32     
    940000   608.83011      13400.002     -505.16921      1467.2363      3744.0039      16197.625     -6651.493      -40.113675      0.93745978     54649.087    
    960000   606.35833      13380.346     -530.35304      1462.1685      3915.7522      16105.998     -6723.1041     -38.658051      0.93895798     54561.89     
    980000   595.6319       13334.003     -613.34621      1453.407       3903.9058      16089.376     -6644.3071     -43.227146      0.95530831     53628.05     
   1000000   594.92474      13363.291     -545.32056      1511.1179      3773.3798      16174.993     -6698.7471     -39.989829      0.94698135     54099.61     
   1020000   605.97479      13408.038     -587.44945      1474.5576      4013.6586      16110.494     -6747.776      -44.139784      0.94901171     53983.867    
   1040000   598.67623      13377.948     -619.66586      1467.3191      3911.6394      16258.255     -6797.7173     -29.891375      0.95962004     53387.09     
   1060000   593.78228      13289.192     -540.10103      1479.1606      3784.8336      16076.2       -6666.224      -32.770413      0.93538674     54770.203    
   1080000   608.07404      13371.212     -490.14166      1481.2505      3885.6573      16033.337     -6693.4298     -33.608319      0.94061536     54465.751    
   1100000   604.72959      13651.966     -501.59889      1495.7098      4017.5645      16120.407     -6623.7183     -44.980854      0.93133553     55008.448    
   1120000   598.16108      13426.698     -547.9767       1475.9153      3866.933       16092.545     -6595.3531     -53.860266      0.95391531     53706.363    
   1140000   597.96097      13591.891     -556.07663      1475.4702      3911.2505      16300.803     -6676.1603     -51.343607      0.94008623     54496.407    
   1160000   601.84439      13356.54      -447.17858      1469.4989      3859.2347      16016.254     -6684.8118     -44.345263      0.92902644     55145.171    
   1180000   611.31637      13499.221     -535.22493      1462.4267      3913.0069      16170.608     -6665.1466     -34.433615      0.94009737     54495.761    
   1200000   600.3709       13503.676     -545.77143      1472.3911      3902.4618      16212.051     -6688.2288     -37.344715      0.95495191     53648.064    
   1200054   606.2535       13406.129     -618.50337      1463.9041      3887.9505      16286.016     -6761.4886     -40.059579      0.95514062     53637.465    
Loop time of 3918.7 on 24 procs for 1200000 steps with 5010 atoms

Performance: 6.614 ns/day, 3.628 hours/ns, 306.224 timesteps/s, 1.534 Matom-step/s
99.5% CPU use with 24 MPI tasks x no OpenMP threads

MPI task timing breakdown:
Section |  min time  |  avg time  |  max time  |%varavg| %total
---------------------------------------------------------------
Pair    | 1764.7     | 2012.4     | 2158.5     | 197.1 | 51.35
Bond    | 763.98     | 832.88     | 891.09     | 118.5 | 21.25
Kspace  | 682.5      | 869.55     | 1186       | 386.7 | 22.19
Neigh   | 45.193     | 45.241     | 45.3       |   0.4 |  1.15
Comm    | 111.51     | 113.47     | 115.68     |   9.7 |  2.90
Output  | 0.0039439  | 0.0048381  | 0.024833   |   6.0 |  0.00
Modify  | 30.906     | 32.505     | 34.397     |  17.7 |  0.83
Other   |            | 12.68      |            |       |  0.32

Nlocal:         208.75 ave         238 max         178 min
Histogram: 2 0 2 1 6 3 6 2 1 1
Nghost:        4681.96 ave        4740 max        4617 min
Histogram: 2 1 3 1 4 3 3 4 0 3
Neighs:        70711.7 ave       80013 max       58854 min
Histogram: 1 2 1 2 2 3 5 3 4 1

Total # of neighbors = 1697081
Ave neighs/atom = 338.73872
Ave special neighs/atom = 6.548503
Neighbor list builds = 15395
Dangerous builds = 0
PPPM initialization ...
  using 12-bit tables for long-range coulomb (../kspace.cpp:342)
  G vector (1/distance) = 0.094163275
  grid = 3 3 3
  stencil order = 5
  estimated absolute RMS force accuracy = 0.34489146
  estimated relative force accuracy = 0.0010386304
  using double precision KISS FFT
  3d grid and FFT values/proc = 252 3
Generated 28 of 28 mixed pair_coeff terms from sixthpower/sixthpower mixing rule
Setting up Verlet run ...
  Unit style    : real
  Current step  : 1200054
  Time step     : 0.25
WARNING: Inconsistent image flags (../domain.cpp:815)
Per MPI rank memory allocation (min/avg/max) = 16.8 | 16.8 | 16.81 Mbytes
   Step          Temp          PotEng         E_vdwl         E_coul         E_bond        E_angle        E_dihed        E_impro        Density         Volume    
   1200054   606.2535       13406.209     -618.50337      1465.4419      3887.9505      16286.016     -6761.4886     -40.059579      0.95514062     53637.465    
   1220000   585.06867      13131.383     -587.39322      1466.2694      3793.3909      15984.676     -6681.7285     -30.44608       0.96541306     53066.737    
   1240000   585.95165      13161.757     -647.45427      1492.553       3808.0489      15991.499     -6637.7313     -33.168762      0.95663312     53553.782    
   1260000   587.67841      13015.695     -592.60851      1468.5728      3637.9396      16003.565     -6646.6197     -41.316814      0.96488411     53095.829    
   1280000   575.78559      13064.049     -511.74917      1491.3427      3617.7147      15970.148     -6658.6274     -30.557052      0.94228929     54368.995    
   1300000   567.96777      13044.864     -595.72192      1483.0705      3780.982       15924.069     -6693.6766     -40.349882      0.94730242     54081.274    
   1320000   577.36321      13139.616     -523.67355      1445.9403      3686.2942      15937.605     -6552.8924     -41.334883      0.95160957     53836.493    
   1340000   565.37232      12980.659     -637.33296      1470.4619      3753.0327      15878.721     -6636.119      -34.587459      0.94927632     53968.819    
   1360000   582.60911      12996.176     -561.91353      1442.9437      3642.1193      15992.954     -6666.7337     -39.938082      0.94968112     53945.815    
   1380000   586.89086      13136.831     -510.37097      1468.6237      3762.2339      16011.712     -6736.3231     -45.728708      0.93815173     54608.78     
   1400000   586.79733      13191.035     -621.09989      1459.8009      3826.0399      16094.587     -6710.6638     -44.840983      0.94666774     54117.532    
   1420000   578.63526      13111.805     -632.2437       1466.5458      3824.689       16080.411     -6780.8229     -33.624095      0.96199147     53255.484    
   1440000   568.49205      12919.258     -554.49234      1459.3821      3651.2251      16005.764     -6787.6283     -41.378378      0.95245052     53788.958    
   1460000   591.6294       12985.172     -625.81853      1454.6085      3779.1228      15928.426     -6702.8837     -34.495395      0.95432907     53683.078    
   1480000   583.60085      12841.628     -595.62875      1424.3679      3693.31        15861.131     -6695.8619     -32.232037      0.95448294     53674.424    
   1500000   583.11852      13004.655     -513.17321      1431.5163      3653.9878      16052.892     -6764.1641     -42.35981       0.94828981     54024.963    
   1520000   585.74742      12926.758     -591.60516      1452.4997      3715.0742      15913.23      -6711.4572     -37.638345      0.95238861     53792.455    
   1540000   583.68493      12973.364     -593.65268      1479.334       3648.3098      16044.719     -6754.6988     -36.757014      0.95536816     53624.69     
   1560000   577.43942      12924.451     -646.67963      1425.0857      3692.8847      15987.743     -6679.6406     -41.076061      0.95621185     53577.376    
   1580000   580.58979      12984.97      -619.56534      1433.343       3731.8167      16046.78      -6753.1787     -41.549263      0.96298427     53200.58     
   1600000   589.54496      13001.599     -621.48674      1480.7098      3702.1748      16114.395     -6820.6657     -40.257476      0.95459131     53668.33     
   1620000   568.78506      13019.4       -566.13432      1496.4126      3764.2091      15930.282     -6753.9079     -37.098831      0.95116953     53861.399    
   1640000   583.42581      13184.339     -567.29946      1450.7498      3855.1506      15998.135     -6701.3595     -37.493119      0.94249042     54357.392    
   1660000   578.23079      13076.495     -546.34925      1492.1942      3699.4671      15961.639     -6677.2204     -39.827794      0.94979747     53939.206    
   1680000   585.64992      13077.682     -577.77015      1447.8396      3762.7245      16003.649     -6707.2886     -37.766504      0.94827181     54025.988    
   1700000   581.13011      12718.342     -635.60934      1450.4203      3676.817       15755.377     -6668.3774     -46.067393      0.96956229     52839.639    
   1720000   574.73171      12981.247     -642.64388      1451.756       3752.2563      15985.691     -6711.961      -40.006563      0.96011116     53359.781    
   1740000   571.36323      12989.147     -571.8103       1487.2574      3665.1856      16018.093     -6761.6871     -33.649834      0.9540754      53697.351    
   1760000   583.66027      13133.251     -493.6234       1458.6751      3776.9015      15861.695     -6612.8476     -43.600784      0.94096126     54445.729    
   1780000   573.81353      12985.355     -499.31584      1450.3395      3665.3385      15931.396     -6714.0049     -34.485425      0.94676237     54112.123    
   1800000   569.74923      13066.42      -597.62607      1457.3148      3668.1903      16079.144     -6689.2167     -37.306429      0.95267008     53776.562    
   1820000   589.37686      12979.892     -525.83326      1469.8614      3619.8722      15937.271     -6663.6527     -44.601107      0.9511909      53860.189    
   1840000   575.00888      13280.795     -569.03043      1449.4783      3809.0551      16248.48      -6807.8973     -35.640302      0.93764869     54638.077    
   1860000   590.85265      13168.539     -497.97622      1462.8058      3617.6115      16153.197     -6711.8072     -41.169445      0.93217611     54958.844    
   1880000   580.40662      13082.959     -543.39607      1467.3117      3712.165       15961.554     -6661.5416     -39.855413      0.94097892     54444.707    
   1900000   577.42453      13013.936     -491.94592      1494.688       3669.5067      15893.63      -6692.1858     -46.720495      0.94228663     54369.148    
   1920000   566.60348      13059.677     -648.12184      1449.353       3827.3188      16035.411     -6753.1283     -37.926968      0.95634684     53569.813    
   1940000   573.41676      13079.678     -529.9421       1493.8548      3690.6734      15974.949     -6702.6541     -33.349394      0.95689614     53539.062    
   1960000   581.73667      12824.172     -628.20653      1483.1909      3664.859       15835.315     -6677.6241     -39.632477      0.95937099     53400.95     
   1980000   578.61587      13007.816     -595.76645      1432.3218      3792.6208      16041.319     -6807.6363     -41.034021      0.95810219     53471.667    
   2000000   579.41221      13035.11      -559.53643      1487.6412      3618.8354      15937.161     -6595.2739     -39.716552      0.96514691     53081.371    
   2020000   575.59996      13100.249     -482.60301      1483.2925      3688.7338      15893.224     -6628.6698     -40.094203      0.95000988     53927.146    
   2040000   584.43608      13029.025     -573.19913      1443.5254      3728.7172      16034.808     -6757.8968     -33.602451      0.95291209     53762.905    
   2060000   577.8918       12883.81      -563.56628      1445.3064      3676.9449      15919.136     -6748.6513     -32.032897      0.95233008     53795.761    
   2080000   590.967        12917.357     -573.9837       1432.1367      3634.0524      15990.048     -6710.1437     -40.644469      0.94863694     54005.194    
   2100000   583.26175      12990.316     -567.22602      1467.0837      3784.2581      15869.174     -6714.7256     -35.798287      0.95957386     53389.659    
   2120000   585.35487      13081.802     -576.43941      1470.4809      3739.8321      15912.094     -6612.1352     -38.869219      0.95681073     53543.841    
   2140000   569.65152      12947.561     -535.12102      1471.8832      3666.8732      15911.516     -6712.1225     -41.860127      0.95154658     53840.056    
   2160000   579.65519      13009.036     -578.5053       1446.4347      3740.1333      15992.588     -6739.3777     -38.075952      0.94796632     54043.399    
   2180000   587.18404      13200.728     -632.13075      1466.2029      3933.9634      16022.902     -6753.2258     -23.460802      0.9598402      53374.845    
   2200000   579.10105      13007.056     -589.25645      1461.586       3761.3387      15801.596     -6570.6346     -44.242267      0.95865768     53440.683    
   2220000   584.27688      12825.172     -558.51826      1429.606       3636.0908      15885.046     -6710.7277     -43.628523      0.95653299     53559.388    
   2240000   574.13251      12852.589     -700.6295       1470.0811      3719.2082      15972.621     -6760.6334     -34.416756      0.96976013     52828.859    
   2260000   585.119        13044.417     -526.34579      1453.0875      3723.0929      15916.476     -6671.5729     -36.729437      0.95810162     53471.699    
   2280000   578.57554      13172.714     -518.13787      1475.163       3870.798       15781.47      -6588.9627     -34.86833       0.94544575     54187.479    
   2300000   579.66936      12918.86      -607.55255      1416.9746      3722.0306      15984.462     -6740.7443     -43.355295      0.94342447     54303.575    
   2320000   577.42444      13083.547     -566.96436      1474.1807      3746.1127      16020.376     -6740.1756     -36.677179      0.95623201     53576.246    
   2340000   584.61655      12853.787     -554.40682      1450.6409      3632.2279      15825.501     -6650.3689     -36.400586      0.95021487     53915.512    
   2360000   575.99735      12803.59      -593.01111      1468.9489      3667.2974      15932.579     -6810.8135     -47.755182      0.96391728     53149.085    
   2380000   584.21641      12794.387     -601.82712      1420.5076      3572.9235      15998.112     -6741.842      -40.125388      0.95560706     53611.284    
   2400000   573.4474       12858.193     -622.39119      1464.7695      3706.5573      15794.699     -6629.1924     -42.152406      0.95479932     53656.638    
   2400054   574.4377       12852.228     -618.38443      1461.4659      3642.2482      15878.884     -6658.0736     -40.010074      0.95583291     53598.617    
Loop time of 3966.29 on 24 procs for 1200000 steps with 5010 atoms

Performance: 6.535 ns/day, 3.672 hours/ns, 302.550 timesteps/s, 1.516 Matom-step/s
99.5% CPU use with 24 MPI tasks x no OpenMP threads

MPI task timing breakdown:
Section |  min time  |  avg time  |  max time  |%varavg| %total
---------------------------------------------------------------
Pair    | 1749.2     | 2051.1     | 2200.8     | 243.5 | 51.71
Bond    | 743.51     | 830.49     | 939.79     | 169.6 | 20.94
Kspace  | 656.82     | 883.12     | 1271.9     | 491.3 | 22.27
Neigh   | 42.26      | 42.317     | 42.367     |   0.4 |  1.07
Comm    | 111.62     | 114.01     | 116.53     |  10.7 |  2.87
Output  | 0.0036959  | 0.0040858  | 0.012535   |   2.8 |  0.00
Modify  | 31.123     | 32.673     | 34.706     |  18.2 |  0.82
Other   |            | 12.61      |            |       |  0.32

Nlocal:         208.75 ave         234 max         171 min
Histogram: 1 0 0 0 6 4 7 3 1 2
Nghost:        4656.75 ave        4723 max        4602 min
Histogram: 1 3 2 4 6 1 2 3 1 1
Neighs:          70536 ave       81590 max       57287 min
Histogram: 1 0 0 2 5 10 2 1 2 1

Total # of neighbors = 1692863
Ave neighs/atom = 337.89681
Ave special neighs/atom = 6.548503
Neighbor list builds = 14641
Dangerous builds = 0
PPPM initialization ...
  using 12-bit tables for long-range coulomb (../kspace.cpp:342)
  G vector (1/distance) = 0.09418124
  grid = 3 3 3
  stencil order = 5
  estimated absolute RMS force accuracy = 0.3448997
  estimated relative force accuracy = 0.0010386552
  using double precision KISS FFT
  3d grid and FFT values/proc = 252 3
Generated 28 of 28 mixed pair_coeff terms from sixthpower/sixthpower mixing rule
Setting up Verlet run ...
  Unit style    : real
  Current step  : 2400054
  Time step     : 0.25
WARNING: Inconsistent image flags (../domain.cpp:815)
Per MPI rank memory allocation (min/avg/max) = 16.8 | 16.8 | 16.81 Mbytes
   Step          Temp          PotEng         E_vdwl         E_coul         E_bond        E_angle        E_dihed        E_impro        Density         Volume    
   2400054   574.4377       12852.237     -618.38443      1461.6297      3642.2482      15878.884     -6658.0736     -40.010074      0.95583291     53598.617    
   2420000   556.29653      12518.182     -669.11271      1430.3522      3519.8501      15780.676     -6687.2397     -42.362875      0.96949927     52843.074    
   2440000   551.77533      12529.178     -564.32449      1441.574       3466.9531      15842.937     -6805.2735     -38.620572      0.96076173     53323.65     
   2460000   559.69246      12586.058     -596.04985      1471.8477      3577.3089      15762.388     -6778.3366     -37.614371      0.96673632     52994.101    
   2480000   565.78238      12765.646     -533.91155      1505.0057      3471.7028      15817.309     -6639.2957     -41.705133      0.96817022     52915.614    
   2500000   565.11567      12711.032     -646.86258      1463.5184      3617.0675      15847.187     -6715.2752     -40.266477      0.96307603     53195.511    
   2520000   566.9879       12769.982     -741.02969      1468.427       3619.5143      15987.729     -6712.3691     -38.394555      0.99292215     51596.514    
   2540000   564.71817      12567.696     -673.43357      1456.6625      3470.0429      15821.691     -6654.6211     -39.53464       0.97588236     52497.436    
   2560000   563.97513      12542.675     -628.57851      1465.9798      3488.887       15804.273     -6732.5439     -41.834379      0.96402705     53143.033    
   2580000   553.95586      12782.49      -654.54556      1447.5203      3572.2591      16008.081     -6735.4141     -41.479884      0.98202634     52168.989    
   2600000   546.33226      12875.819     -738.3704       1453.2448      3700.713       16052.328     -6727.0515     -51.367084      0.96721591     52967.823    
   2620000   558.8362       12751.34      -573.12962      1493.7126      3561.0699      15854.561     -6731.9333     -39.250874      0.95667832     53551.252    
   2640000   571.31141      12655.459     -676.13004      1463.281       3710.8744      15695.585     -6687.4976     -37.046575      0.97181756     52717.016    
   2660000   571.45939      12748.198     -604.09691      1432.4547      3640.4802      15908.6       -6775.0113     -41.298699      0.96363564     53164.619    
   2680000   557.24641      12624.084     -674.01097      1439.4876      3640.6693      15762.689     -6698.1479     -32.638812      0.96874804     52884.052    
   2700000   550.62637      12531.096     -641.54373      1450.1249      3603.5989      15850.271     -6885.5715     -31.763472      0.96819254     52914.394    
   2720000   566.09646      12405.422     -734.44632      1441.92        3484.1044      15798.226     -6727.6808     -43.195391      0.98975308     51761.72     
   2740000   572.34718      12647.429     -655.31814      1473.7982      3550.6021      15959.786     -6819.2179     -48.628999      0.96246922     53229.049    
   2760000   560.03753      12770.228     -688.33269      1452.2191      3621.8856      15948.612     -6705.8038     -44.771665      0.96991479     52820.436    
   2780000   560.39317      12460.026     -688.36494      1476.4812      3491.996       15796.829     -6767.7929     -35.369065      0.97450601     52571.581    
   2800000   566.16123      12753.891     -692.64067      1450.2403      3693.2999      15883.69      -6722.5186     -44.559613      0.9722628      52692.875    
   2820000   559.90985      12734.676     -651.56585      1477.5985      3669.0519      15748.984     -6651.6953     -44.104346      0.97111239     52755.296    
   2840000   569.53622      12873.722     -631.11583      1484.7364      3625.4025      15904.423     -6652.5863     -43.397193      0.96797865     52926.086    
   2860000   558.02328      12493.488     -636.86835      1458.4889      3558.7343      15644.356     -6687.1712     -31.274869      0.96829313     52908.897    
   2880000   560.5529       12678.503     -591.43225      1486.5725      3574.1856      15804.214     -6740.2614     -41.535482      0.96939881     52848.55     
   2900000   552.3627       12632.998     -645.24713      1447.4673      3631.0451      15821.254     -6764.3821     -42.465387      0.97228046     52691.918    
   2920000   562.43519      12695.508     -650.91886      1484.0969      3638.1337      15841.919     -6769.6823     -35.289971      0.96586432     53041.944    
   2940000   560.93527      12795.46      -632.71916      1454.2738      3688.6896      15864.138     -6730.2447     -35.299248      0.96785347     52932.932    
   2960000   566.45037      12727.406     -643.38816      1446.8165      3604.1381      15940.34      -6775.6187     -31.248355      0.97480385     52555.518    
   2980000   570.71743      12541.852     -670.25288      1478.5532      3635.1143      15760.963     -6807.7088     -41.272829      0.97495035     52547.621    
   3000000   561.41491      12599.225     -691.61219      1462.4966      3625.2542      15774.776     -6733.3394     -25.645007      0.9696358      52835.633    
   3020000   557.03687      12709.084     -787.06707      1484.5955      3644.3236      15896.308     -6675.7985     -41.100127      0.97284657     52661.256    
   3040000   555.38096      12586.496     -605.88678      1472.5806      3598.3073      15649.049     -6669.704      -44.293907      0.9699768      52817.059    
   3060000   559.58356      12580.048     -673.92191      1483.3525      3558.0913      15853.133     -6796.6947     -30.031272      0.9706082      52782.7      
   3080000   561.46086      12589.352     -649.57652      1453.6732      3606.6498      15858.314     -6826.3012     -39.447302      0.96763437     52944.917    
   3100000   554.39332      12722.791     -666.5253       1462.8065      3622.5445      15844.802     -6688.0106     -39.094959      0.9639347      53148.125    
   3120000   562.6447       12537.453     -635.81909      1461.7236      3591.8255      15719.865     -6746.358      -40.126978      0.94908794     53979.531    
   3140000   553.75871      12540.517     -632.84478      1445.591       3528.0318      15816.28      -6773.5897     -28.439069      0.96137694     53289.526    
   3160000   553.81829      12634.582     -629.23613      1461.4212      3459.6267      15962.949     -6765.7377     -41.453377      0.9617108      53271.027    
   3180000   552.10972      12500.044     -654.92406      1466.2189      3618.7916      15665.509     -6734.5134     -48.023681      0.98309893     52112.071    
   3200000   555.27851      12713.618     -689.34554      1438.2573      3625.9649      15884.888     -6691.6788     -40.367913      0.95934916     53402.164    
   3220000   563.01806      12750.737     -570.02729      1436.8707      3560.3537      15906.81      -6724.6684     -44.581919      0.95184919     53822.94     
   3240000   549.30249      12904.395     -583.82334      1459.4049      3705.0362      15893.707     -6716.5184     -39.214133      0.95129918     53854.059    
   3260000   561.0935       12727.36      -597.49418      1424.6322      3551.0577      15860.755     -6656.1071     -41.551447      0.97254459     52677.607    
   3280000   559.14668      12475.575     -713.42986      1468.2235      3605.4526      15737.023     -6780.6593     -26.638415      0.96726253     52965.27     
   3300000   562.47921      12581.476     -653.17718      1412.18        3585.7351      15923.508     -6833.6807     -39.689558      0.97858643     52352.373    
   3320000   555.97456      12657.704     -679.43941      1498.6455      3540.2209      15850.696     -6707.6756     -31.372578      0.97508572     52540.326    
   3340000   575.63893      12701.613     -590.91225      1422.3058      3622.3899      15820.711     -6730.5988     -28.996414      0.96466234     53108.035    
   3360000   564.15817      12563.901     -668.00638      1427.3068      3622.8383      15766.582     -6731.919      -38.369815      0.9772164      52425.769    
   3380000   554.82081      12704.813     -626.34199      1465.1964      3650.7083      15794.783     -6731.9692     -33.917865      0.97041296     52793.32     
   3400000   552.86618      12649.91      -608.67358      1492.9262      3570.5504      15803.914     -6754.0291     -41.273924      0.96770147     52941.246    
   3420000   554.54855      12758.167     -623.97775      1467.2471      3644.6465      15806.626     -6683.7509     -38.430598      0.95759007     53500.264    
   3440000   558.56242      12699.567     -639.00184      1453.2089      3653.1989      15766.362     -6688.5415     -31.369633      0.95845811     53451.811    
   3460000   563.35235      12767.852     -665.91804      1480.8189      3604.3125      15900.966     -6710.4077     -28.128863      0.96089786     53316.095    
   3480000   577.25309      12683.478     -580.849        1441.8121      3582.6008      15881.732     -6785.0909     -43.582469      0.97156571     52730.681    
   3500000   545.79162      12606.5       -576.5377       1481.0585      3579.3071      15603.32      -6632.8653     -34.43619       0.96347978     53173.219    
   3520000   552.4262       12711.842     -648.85192      1436.426       3623.2554      15873.572     -6722.4692     -36.718928      0.9788042      52340.725    
   3540000   552.24596      12555.906     -695.92655      1482.2992      3539.1411      15675.467     -6590.4724     -41.269143      0.97678955     52448.679    
   3560000   564.35557      12581.215     -687.63766      1468.6741      3616.0537      15752.83      -6716.1553     -39.250264      0.97391788     52603.328    
   3580000   554.09084      12760.487     -602.38023      1462.5549      3605.2748      15898.388     -6754.0275     -35.533243      0.95626884     53574.183    
   3600000   549.53152      12707.141     -613.9779       1440.6818      3654.8741      15795.247     -6718.6337     -37.277641      0.96925679     52856.293    
   3600054   552.83382      12601.183     -670.19359      1452.1221      3499.4716      15779.461     -6617.8174     -28.202529      0.96876119     52883.334    
Loop time of 3950.41 on 24 procs for 1200000 steps with 5010 atoms

Performance: 6.561 ns/day, 3.658 hours/ns, 303.766 timesteps/s, 1.522 Matom-step/s
99.5% CPU use with 24 MPI tasks x no OpenMP threads

MPI task timing breakdown:
Section |  min time  |  avg time  |  max time  |%varavg| %total
---------------------------------------------------------------
Pair    | 1906.4     | 2084.2     | 2177.4     | 170.3 | 52.76
Bond    | 751.89     | 830.47     | 940.85     | 149.7 | 21.02
Kspace  | 643.02     | 835.03     | 1090.8     | 362.6 | 21.14
Neigh   | 40.378     | 40.427     | 40.484     |   0.5 |  1.02
Comm    | 112.57     | 115        | 117.43     |  11.1 |  2.91
Output  | 0.0095785  | 0.010079   | 0.021226   |   2.3 |  0.00
Modify  | 30.977     | 32.495     | 34.716     |  18.0 |  0.82
Other   |            | 12.76      |            |       |  0.32

Nlocal:         208.75 ave         226 max         191 min
Histogram: 2 1 2 2 4 3 4 3 2 1
Nghost:        4696.21 ave        4727 max        4638 min
Histogram: 2 1 0 2 1 1 4 5 3 5
Neighs:        71508.5 ave       78348 max       63654 min
Histogram: 2 0 2 4 4 4 1 1 3 3

Total # of neighbors = 1716204
Ave neighs/atom = 342.55569
Ave special neighs/atom = 6.548503
Neighbor list builds = 14038
Dangerous builds = 0
PPPM initialization ...
  using 12-bit tables for long-range coulomb (../kspace.cpp:342)
  G vector (1/distance) = 0.094514785
  grid = 3 3 3
  stencil order = 5
  estimated absolute RMS force accuracy = 0.34504571
  estimated relative force accuracy = 0.0010390949
  using double precision KISS FFT
  3d grid and FFT values/proc = 252 3
Generated 28 of 28 mixed pair_coeff terms from sixthpower/sixthpower mixing rule
Setting up Verlet run ...
  Unit style    : real
  Current step  : 3600054
  Time step     : 0.25
WARNING: Inconsistent image flags (../domain.cpp:815)
Per MPI rank memory allocation (min/avg/max) = 16.8 | 16.8 | 16.81 Mbytes
   Step          Temp          PotEng         E_vdwl         E_coul         E_bond        E_angle        E_dihed        E_impro        Density         Volume    
   3600054   552.83382      12601.306     -670.19359      1455.1173      3499.4716      15779.461     -6617.8174     -28.202529      0.96876119     52883.334    
   3620000   551.28552      12346.846     -595.03279      1475.7655      3479.4015      15513.305     -6670.7233     -39.600669      0.96555846     53058.746    
   3640000   545.87629      12293.884     -681.60217      1443.0258      3413.0407      15650.807     -6679.3531     -36.029826      0.96229223     53238.839    
   3660000   544.83616      12384.671     -652.06775      1459.7939      3453.5826      15644.985     -6664.0663     -40.928392      0.9693571      52850.824    
   3680000   533.72599      12121.196     -682.33692      1453.5064      3407.1435      15514.065     -6707.4738     -46.674674      0.98181216     52180.37     
   3700000   539.56505      12403.833     -701.49085      1477.3865      3513.1903      15656.609     -6684.5555     -40.095213      0.96711365     52973.424    
   3720000   539.56891      12314.783     -673.79066      1471.4051      3400.1997      15726.22      -6752.3175     -40.057733      0.98007515     52272.85     
   3740000   554.40538      12120.15      -714.58819      1440.8731      3443.3652      15567.414     -6763.0273     -36.746699      0.96824693     52911.422    
   3760000   540.40372      12366.688     -686.45036      1454.6755      3485.2133      15695.617     -6722.6032     -42.66496       0.97137149     52741.224    
   3780000   548.99229      12187.446     -717.25169      1426.1035      3467.585       15500.775     -6641.2078     -31.227326      0.97989881     52282.257    
   3800000   550.75773      12384.303     -748.08863      1459.2943      3427.4427      15735.428     -6639.3445     -34.317489      0.97536187     52525.451    
   3820000   548.08204      12312.687     -726.07826      1495.6676      3527.7204      15652.678     -6783.1068     -37.07263       0.97379143     52610.158    
   3840000   536.65091      12261.795     -769.06004      1470.149       3438.3854      15649.905     -6677.4998     -34.295763      0.9808489      52231.614    
   3860000   543.85599      12272.481     -680.62484      1440.1449      3455.6707      15630.953     -6720.4611     -36.293165      0.97186873     52714.24     
   3880000   546.53425      12439.346     -706.48048      1467.1257      3604.692       15698.083     -6763.4449     -43.782887      0.97013085     52808.672    
   3900000   546.20305      12173.674     -749.82443      1473.6104      3493.7443      15544.332     -6739.938      -32.232485      0.97341364     52630.577    
   3920000   547.0543       12421.045     -701.84228      1480.7961      3486.4297      15780.156     -6766.986      -41.02645       0.97414808     52590.897    
   3940000   532.96159      12407.18      -691.90033      1449.725       3593.2662      15661.103     -6756.7975     -31.209414      0.98031547     52260.036    
   3960000   536.36681      12279.735     -743.03029      1465.3111      3501.6622      15687.369     -6784.5117     -29.99676       0.96980846     52826.227    
   3980000   540.43631      12234.864     -703.09036      1455.911       3359.6462      15761.534     -6779.0471     -42.950864      0.96893527     52873.833    
   4000000   538.74136      12249.625     -646.39071      1485.0455      3414.3324      15612.725     -6759.7023     -40.518523      0.96495525     53091.915    
   4020000   536.28194      12341.853     -710.47451      1478.2561      3553.5438      15563.865     -6691.5778     -35.170176      0.97440622     52576.965    
   4040000   542.81637      12317.419     -685.9992       1481.6669      3456.9289      15625.33      -6714.1176     -29.387166      0.97648254     52465.169    
   4060000   530.75738      12363.372     -631.16906      1481.5759      3515.4129      15589.291     -6742.2906     -33.024637      0.96624981     53020.783    
   4080000   532.27297      12254.279     -723.33671      1457.182       3580.5292      15527.783     -6734.056      -36.828513      0.98021488     52265.399    
   4100000   520.23059      12302.105     -705.6811       1465.6625      3517.1274      15651.708     -6774.9637     -35.429727      0.9760908      52486.225    
   4120000   548.89788      12281.988     -735.09936      1489.2651      3440.4878      15696.883     -6761.7496     -30.664829      0.97882027     52339.866    
   4140000   535.98197      12280.933     -757.34524      1444.5439      3545.5918      15578.97      -6684.387      -29.696402      0.98545432     51987.515    
   4160000   539.14637      12266.489     -765.10604      1483.4595      3506.0247      15565.109     -6665.3829     -41.095824      0.98379723     52075.082    
   4180000   526.67388      12320.52      -694.99962      1470.2389      3450.5609      15575.513     -6624.4679     -39.717214      0.98060914     52244.385    
   4200000   546.53202      12279.313     -713.44007      1459.8312      3432.622       15643.085     -6680.1582     -45.436545      0.971492       52734.682    
   4220000   544.51913      12313.328     -705.84238      1436.1513      3447.458       15832.475     -6843.5658     -37.055541      0.96057729     53333.888    
   4240000   539.40106      12383.901     -705.90658      1474.7498      3574.2186      15662.546     -6765.3204     -40.314718      0.96967611     52833.437    
   4260000   525.94983      12282.861     -716.5473       1466.3429      3461.0792      15696.334     -6780.9381     -26.616108      0.97826415     52369.62     
   4280000   550.80085      12427.527     -692.97462      1480.9573      3541.5254      15634.941     -6677.2858     -42.939371      0.97399149     52599.352    
   4300000   542.57673      12214.739     -650.48617      1450.3432      3328.2513      15595.007     -6652.6156     -39.073898      0.97399965     52598.911    
   4320000   544.92729      12355.955     -657.05399      1440.0569      3483.9099      15716.147     -6774.8403     -35.491464      0.97405202     52596.084    
   4340000   539.07511      12216.159     -681.54513      1454.2834      3401.3495      15647.395     -6746.316      -41.974456      0.97963939     52296.102    
   4360000   546.25699      12245.858     -668.85914      1440.869       3416.0957      15605.233     -6688.1515     -41.991227      0.97379659     52609.88     
   4380000   546.49263      12389.637     -640.31354      1476.5621      3473.7416      15674.843     -6738.1385     -40.797134      0.96628426     53018.893    
   4400000   534.20805      12515.177     -648.82943      1456.1315      3502.3798      15783.469     -6728.8117     -31.916673      0.96850154     52897.512    
   4420000   556.24196      12559.448     -656.30579      1465.4539      3581.9395      15888.792     -6874.7947     -28.508895      0.96491389     53094.19     
   4440000   547.00339      12427.343     -683.1272       1451.4347      3535.7474      15693.115     -6707.1475     -45.618829      0.97376097     52611.804    
   4460000   532.47946      12384.168     -667.80142      1440.9366      3538.9479      15609.764     -6687.7822     -32.378082      0.9639304      53148.362    
   4480000   536.40954      12354.239     -733.45912      1505.0618      3581.3467      15623.658     -6765.6394     -40.396163      0.96688375     52986.02     
   4500000   534.52321      12345.696     -591.22713      1470.9297      3548.665       15528.929     -6762.846      -32.20117       0.9694552      52845.476    
   4520000   535.3707       12289.822     -698.32099      1449.8166      3480.1309      15648.219     -6735.0709     -38.450189      0.9809764      52224.826    
   4540000   543.25189      12229.356     -660.14475      1429.5423      3392.4797      15630.403     -6702.7592     -42.849629      0.9790732      52326.345    
   4560000   541.75532      12377.674     -639.01688      1479.2338      3447.0303      15691.468     -6747.8927     -36.582951      0.95394517     53704.682    
   4580000   538.02323      12432.149     -605.82114      1473.6957      3460.3883      15817.8       -6865.0105     -32.218504      0.95225931     53799.759    
   4600000   540.45344      12293.814     -690.40538      1470.5343      3353.4961      15745.174     -6727.6196     -40.652792      0.97397854     52600.051    
   4620000   541.04971      12407.333     -740.67217      1479.4244      3497.7795      15755.007     -6735.0866     -31.943139      0.97937203     52310.378    
   4640000   548.30405      12165         -671.8533       1467.9162      3451.0799      15549.366     -6773.1905     -41.19432       0.96691943     52984.065    
   4660000   536.68398      12306.98      -731.27726      1473.5432      3535.6307      15513.052     -6626.7958     -40.007019      0.97594928     52493.836    
   4680000   540.47992      12314.085     -719.44277      1489.6294      3509.2908      15613.741     -6711.2943     -51.229127      0.96519556     53078.696    
   4700000   539.22557      12340.798     -633.81372      1456.946       3508.7039      15613.936     -6757.3944     -31.440469      0.96231268     53237.708    
   4720000   538.89518      12144.934     -766.8748       1447.7316      3474.0192      15601.85      -6756.4094     -38.497642      0.97533686     52526.798    
   4740000   540.45129      12268.257     -719.42733      1463.4878      3415.3166      15618.388     -6662.1585     -30.360579      0.97865873     52348.505    
   4760000   532.03294      12376.667     -747.82323      1456.0706      3529.8209      15679.234     -6687.9007     -35.378676      0.97792169     52387.959    
   4780000   532.63737      12230.355     -729.79148      1459.1053      3438.8952      15671.788     -6746.3128     -47.073435      0.98000323     52276.686    
   4800000   538.34433      12338.992     -656.01463      1441.9338      3513.7432      15666.978     -6775.4352     -35.016739      0.95753148     53503.538    
   4800054   544.02583      12321.3       -683.47194      1432.9308      3577.6019      15629.198     -6777.1368     -40.77728       0.95906134     53418.191    
Loop time of 3964.18 on 24 procs for 1200000 steps with 5010 atoms

Performance: 6.539 ns/day, 3.671 hours/ns, 302.711 timesteps/s, 1.517 Matom-step/s
99.5% CPU use with 24 MPI tasks x no OpenMP threads

MPI task timing breakdown:
Section |  min time  |  avg time  |  max time  |%varavg| %total
---------------------------------------------------------------
Pair    | 1896.9     | 2087.3     | 2244.6     | 191.4 | 52.66
Bond    | 736.74     | 830.58     | 948.67     | 174.6 | 20.95
Kspace  | 644.84     | 846.82     | 1117.1     | 423.1 | 21.36
Neigh   | 39.092     | 39.159     | 39.216     |   0.6 |  0.99
Comm    | 112.62     | 114.86     | 117.49     |  11.4 |  2.90
Output  | 0.0037521  | 0.0044449  | 0.019969   |   4.9 |  0.00
Modify  | 31.089     | 32.883     | 35.032     |  18.6 |  0.83
Other   |            | 12.53      |            |       |  0.32

Nlocal:         208.75 ave         227 max         186 min
Histogram: 2 0 5 1 3 1 1 5 2 4
Nghost:        4673.42 ave        4717 max        4634 min
Histogram: 3 0 4 5 1 3 2 2 1 3
Neighs:        70788.9 ave       79012 max       61547 min
Histogram: 2 1 5 2 1 1 3 3 3 3

Total # of neighbors = 1698933
Ave neighs/atom = 339.10838
Ave special neighs/atom = 6.548503
Neighbor list builds = 13474
Dangerous builds = 0
PPPM initialization ...
  using 12-bit tables for long-range coulomb (../kspace.cpp:342)
  G vector (1/distance) = 0.094264879
  grid = 3 3 3
  stencil order = 5
  estimated absolute RMS force accuracy = 0.34493754
  estimated relative force accuracy = 0.0010387691
  using double precision KISS FFT
  3d grid and FFT values/proc = 252 3
Generated 28 of 28 mixed pair_coeff terms from sixthpower/sixthpower mixing rule
Setting up Verlet run ...
  Unit style    : real
  Current step  : 4800054
  Time step     : 0.25
WARNING: Inconsistent image flags (../domain.cpp:815)
Per MPI rank memory allocation (min/avg/max) = 16.8 | 16.8 | 16.81 Mbytes
   Step          Temp          PotEng         E_vdwl         E_coul         E_bond        E_angle        E_dihed        E_impro        Density         Volume    
   4800054   544.02583      12321.162     -683.47194      1430.6378      3577.6019      15629.198     -6777.1368     -40.77728       0.95906134     53418.191    
   4820000   524.06644      11891.128     -755.81295      1455.9375      3382.1732      15372.677     -6717.5878     -33.323798      0.98816777     51844.761    
   4840000   516.45561      11931.195     -788.12016      1452.8263      3323.7791      15483.634     -6692.428      -34.090245      0.97735201     52418.495    
   4860000   525.25523      11949.588     -768.00349      1470.7039      3331.8471      15418.574     -6655.4334     -33.50918       0.97049285     52788.974    
   4880000   515.30078      11959.387     -689.98641      1474.481       3393.2757      15444.018     -6807.8994     -39.972154      0.98701761     51905.175    
   4900000   527.44693      11789.352     -721.96072      1459.1503      3245.3089      15468.62      -6811.2829     -35.967754      0.98833982     51835.735    
   4920000   518.07399      12095.308     -740.1847       1477.0141      3348.3929      15544.599     -6683.9111     -35.906411      0.97285603     52660.743    
   4940000   525.3547       12073.858     -744.50851      1454.0962      3494.4014      15473.008     -6748.8919     -39.30796       0.98653457     51930.589    
   4960000   521.42921      11989.282     -798.50281      1425.1711      3452.9741      15454.382     -6688.5905     -40.939731      0.98394293     52067.371    
   4980000   528.11488      11969.575     -756.5881       1442.3573      3449.7125      15373.154     -6687.1637     -36.700112      0.9824345      52147.315    
   5000000   529.67178      12078.136     -736.96547      1458.5353      3427.3928      15475.634     -6694.9724     -36.64483       0.98798675     51854.26     
   5020000   521.81743      11876.982     -656.88303      1433.8056      3433.4756      15181.326     -6660.2586     -39.692041      0.98141775     52201.34     
   5040000   526.50151      12103.546     -813.33953      1455.2079      3467.2622      15598.343     -6753.7987     -34.729792      0.98966421     51766.368    
   5060000   509.3927       11980.461     -725.23901      1440.962       3373.4772      15538.906     -6804.3972     -28.796001      0.97746111     52412.645    
   5080000   520.93096      12118.428     -766.34446      1456.6314      3445.9014      15686.315     -6854.1198     -35.063008      0.98446837     52039.581    
   5100000   520.0101       11909.835     -810.85925      1461.6712      3330.2371      15508.135     -6732.335      -32.100753      0.98251426     52143.082    
   5120000   517.10723      11915.254     -792.58046      1423.0405      3309.5384      15686.499     -6867.2878     -28.538235      0.98917697     51791.866    
   5140000   516.46007      12049.066     -671.99129      1458.7627      3278.218       15590.212     -6751.7739     -39.832999      0.97788648     52389.845    
   5160000   515.27346      12090.48      -788.86449      1453.0791      3391.267       15644.727     -6749.6096     -45.497634      0.9878251      51862.745    
   5180000   515.78928      12026.319     -816.68654      1458.1969      3410.1249      15642.741     -6810.1017     -44.0683        0.98495508     52013.866    
   5200000   528.59723      11965.41      -776.22571      1463.0075      3366.1483      15586.335     -6814.5067     -44.713733      0.99165446     51662.473    
   5220000   518.89283      11824.491     -791.48461      1430.0464      3228.0452      15539.333     -6721.9423     -45.076319      0.99793211     51337.482    
   5240000   524.32579      11992.44      -716.61381      1489.8461      3340.0432      15451.93      -6725.3521     -33.39681       1.002522       51102.439    
   5260000   524.41268      11764.554     -747.0101       1444.6728      3268.2533      15434.056     -6778.1385     -42.678184      0.99528244     51474.154    
   5280000   521.35342      12069.754     -712.31809      1448.1303      3404.4225      15601.655     -6821.4642     -36.251449      0.99585997     51444.302    
   5300000   519.65117      12033.184     -681.28273      1473.5914      3317.8688      15559.789     -6784.7198     -37.413202      0.98262541     52137.184    
   5320000   516.55328      12077.452     -723.73689      1434.2244      3385.6903      15693.177     -6862.2684     -35.603595      0.98763569     51872.692    
   5340000   527.78823      12015.67      -789.80875      1458.4085      3403.8268      15587.797     -6802.8664     -26.763606      0.97628138     52475.979    
   5360000   515.58712      11916.635     -812.19706      1434.5411      3378.577       15526.291     -6764.4113     -31.545652      0.99113398     51689.603    
   5380000   516.84184      11986.926     -779.94323      1453.8103      3315.1686      15622.487     -6776.9824     -33.510156      0.99551806     51461.971    
   5400000   515.06394      11983.214     -769.05658      1485.2672      3252.3807      15521.07      -6659.2354     -33.193015      0.98675619     51918.926    
   5420000   519.45001      12010.468     -825.25958      1453.3617      3457.3574      15434.995     -6656.9922     -39.223144      0.99045614     51724.977    
   5440000   521.68201      12098.269     -733.62802      1437.4597      3475.3519      15517.377     -6751.587      -31.856262      0.97342037     52630.213    
   5460000   521.86489      11986.718     -768.76937      1455.9871      3436.4511      15491.704     -6777.2858     -37.029054      0.99054073     51720.56     
   5480000   525.12337      11829.157     -789.20017      1457.903       3335.2929      15358.331     -6682.0755     -36.33542       0.98971569     51763.675    
   5500000   525.90614      11936.413     -733.54601      1430.3662      3342.2878      15566.795     -6822.4093     -32.392062      0.9857814      51970.266    
   5520000   517.29921      11883.95      -787.06974      1437.8301      3225.8046      15643.066     -6787.9039     -32.903445      0.98948606     51775.688    
   5540000   534.29635      12072.042     -796.46997      1470.9697      3358.7835      15650.563     -6760.3574     -37.60487       0.98272553     52131.872    
   5560000   514.02567      11997.339     -761.65103      1484.132       3317.4926      15530.946     -6717.3648     -41.595035      0.9915945      51665.597    
   5580000   523.39111      11914.68      -769.85416      1486.1088      3344.3874      15418.102     -6723.6739     -25.62767       0.98803383     51851.789    
   5600000   526.07369      11925.359     -752.54592      1460.3588      3345.6118      15543.557     -6823.526      -34.036293      0.98040166     52255.442    
   5620000   517.3842       12122.749     -659.04852      1474.5992      3422.7167      15509.989     -6769.5345     -41.578043      0.98397095     52065.888    
   5640000   525.09578      11929.911     -760.92457      1456.1311      3396.1769      15477.066     -6780.8387     -43.564824      0.98775976     51866.176    
   5660000   522.44039      12118.932     -746.03271      1478.4958      3473.0589      15509.743     -6751.4242     -30.133955      0.98391069     52069.077    
   5680000   518.46378      11906.991     -788.75004      1476.194       3332.3407      15535.883     -6801.4139     -32.841274      0.99073123     51710.615    
   5700000   526.27052      11876.672     -784.15609      1443.3045      3324.3502      15446.331     -6704.2482     -35.219267      0.98012973     52269.939    
   5720000   516.08186      12012.102     -753.044        1450.8798      3388.2689      15519.943     -6739.1452     -40.414054      0.96547506     53063.33     
   5740000   517.4089       11973.081     -782.93214      1455.2569      3405.2346      15517.691     -6781.2828     -26.580819      0.98543232     51988.676    
   5760000   523.88378      12110.216     -734.85227      1462.0632      3388.7824      15650.673     -6808.4515     -34.296708      0.97433193     52580.974    
   5780000   510.12971      11902.924     -697.82901      1473.1639      3221.8621      15496.268     -6737.56       -38.924855      0.99065238     51714.731    
   5800000   522.07024      11965.946     -815.66718      1468.8518      3413.1102      15549.81      -6800.5227     -35.82133       0.98574471     51972.2      
   5820000   521.13348      12047.812     -797.05884      1459.1063      3447.2089      15605.227     -6807.0201     -45.104379      0.98583281     51967.556    
   5840000   524.8098       11836.434     -839.461        1471.2836      3352.4214      15441.604     -6742.8861     -32.142492      0.98945059     51777.544    
   5860000   519.5883       11920.654     -753.17204      1480.6205      3305.0226      15516.27      -6780.2087     -32.91834       0.99034547     51730.757    
   5880000   515.75713      11892.129     -790.29442      1435.7067      3391.1019      15599.26      -6889.3466     -39.549385      0.98695141     51908.656    
   5900000   524.40725      11969.458     -708.76748      1453.5852      3383.2688      15378.376     -6679.2981     -43.157929      0.99190153     51649.604    
   5920000   517.88621      11901.28      -690.11976      1437.7448      3361.2629      15395.458     -6748.3546     -41.062234      0.99384448     51548.63     
   5940000   520.32404      11987.357     -778.71086      1459.7994      3426.0204      15506.207     -6771.8608     -39.239787      0.98465494     52029.721    
   5960000   516.76742      11989.138     -732.6931       1419.2247      3428.6558      15558.877     -6827.4372     -42.670692      0.98622838     51946.712    
   5980000   513.89785      11950.759     -705.15362      1440.0731      3431.203       15489.018     -6853.3093     -35.699944      0.98152032     52195.885    
   6000000   516.38123      11988.609     -776.70867      1450.3232      3372.3408      15534.296     -6738.5923     -38.985996      0.99140323     51675.565    
   6000054   515.17765      11938.116     -752.01583      1456.058       3372.8755      15558.055     -6839.2028     -43.60536       0.99177445     51656.222    
Loop time of 3969.85 on 24 procs for 1200000 steps with 5010 atoms

Performance: 6.529 ns/day, 3.676 hours/ns, 302.278 timesteps/s, 1.514 Matom-step/s
99.5% CPU use with 24 MPI tasks x no OpenMP threads

MPI task timing breakdown:
Section |  min time  |  avg time  |  max time  |%varavg| %total
---------------------------------------------------------------
Pair    | 1965       | 2118.7     | 2253.7     | 181.0 | 53.37
Bond    | 735.13     | 830.33     | 968.98     | 165.3 | 20.92
Kspace  | 645.39     | 822.03     | 1070.7     | 392.0 | 20.71
Neigh   | 37.931     | 37.965     | 38.007     |   0.3 |  0.96
Comm    | 113.18     | 115.38     | 117.67     |  10.4 |  2.91
Output  | 0.0040685  | 0.0050222  | 0.026641   |   6.4 |  0.00
Modify  | 31.144     | 32.723     | 34.639     |  17.9 |  0.82
Other   |            | 12.74      |            |       |  0.32

Nlocal:         208.75 ave         228 max         187 min
Histogram: 4 0 1 3 3 1 2 5 2 3
Nghost:        4788.71 ave        4837 max        4737 min
Histogram: 1 1 3 0 5 6 3 2 2 1
Neighs:        73259.9 ave       80307 max       62692 min
Histogram: 1 2 1 3 0 4 5 2 1 5

Total # of neighbors = 1758238
Ave neighs/atom = 350.94571
Ave special neighs/atom = 6.548503
Neighbor list builds = 12932
Dangerous builds = 0
PPPM initialization ...
  using 12-bit tables for long-range coulomb (../kspace.cpp:342)
  G vector (1/distance) = 0.095099536
  grid = 3 3 3
  stencil order = 5
  estimated absolute RMS force accuracy = 0.34527029
  estimated relative force accuracy = 0.0010397712
  using double precision KISS FFT
  3d grid and FFT values/proc = 252 3
Generated 28 of 28 mixed pair_coeff terms from sixthpower/sixthpower mixing rule
Setting up Verlet run ...
  Unit style    : real
  Current step  : 6000054
  Time step     : 0.25
WARNING: Inconsistent image flags (../domain.cpp:815)
Per MPI rank memory allocation (min/avg/max) = 16.8 | 16.8 | 16.81 Mbytes
   Step          Temp          PotEng         E_vdwl         E_coul         E_bond        E_angle        E_dihed        E_impro        Density         Volume    
   6000054   515.17765      11938.789     -752.01583      1463.9196      3372.8755      15558.055     -6839.2028     -43.60536       0.99177445     51656.222    
   6020000   504.18524      11660.199     -732.31881      1461.1146      3256.5559      15274.505     -6739.1921     -39.024902      0.97790532     52388.836    
   6040000   495.71975      11611.86      -753.62738      1488.431       3188.1558      15315.788     -6777.1204     -28.300941      0.98794162     51856.629    
   6060000   505.25343      11635.641     -850.07101      1478.6659      3296.4187      15395.83      -6831.1877     -32.640384      0.99831676     51317.702    
   6080000   494.80886      11465.425     -879.38501      1481.7787      3170.4321      15367.917     -6819.1332     -34.903122      1.0079692      50826.277    
   6100000   496.21442      11694.726     -846.63881      1470.0314      3305.6564      15376.517     -6752.0168     -36.603899      0.99606866     51433.524    
   6120000   512.55016      11587.478     -802.3302       1414.6112      3187.1938      15440.504     -6794.0439     -36.716704      0.98555042     51982.446    
   6140000   504.43668      11679.762     -810.78451      1462.7937      3318.4184      15398.68      -6826.1023     -41.539227      0.99338913     51572.259    
   6160000   505.73667      11687.017     -886.5009       1458.8971      3297.6498      15339.998     -6672.5971     -28.585921      1.0083052      50809.341    
   6180000   504.09013      11646.376     -808.70554      1462.5195      3164.0722      15481.236     -6798.3079     -32.454412      0.98922448     51789.379    
   6200000   500.52149      11570.903     -825.98811      1459.9787      3239.9977      15276.044     -6723.7484     -33.828095      0.99659196     51406.517    
   6220000   502.45957      11639.152     -768.39928      1456.1187      3238.2887      15409.62      -6842.7286     -32.017424      0.98726569     51892.132    
   6240000   507.79291      11612.653     -735.07632      1472.1326      3165.3576      15390.032     -6817.4564     -41.596562      0.99448014     51515.681    
   6260000   500.18622      11691.338     -816.78572      1456.8973      3150.5588      15543.004     -6791.3888     -29.865979      0.99628364     51422.426    
   6280000   506.1108       11700.614     -849.11202      1475.7303      3369.5006      15344.6       -6786.3789     -32.416858      0.9816402      52189.51     
   6300000   501.60608      11477.255     -820.9526       1473.079       3202.8274      15343.782     -6870.8955     -29.653095      0.98341001     52095.587    
   6320000   505.40953      11619.781     -715.35522      1480.8104      3140.1706      15400.274     -6833.2185     -31.508113      0.97830118     52367.638    
   6340000   505.68224      11675.461     -745.79097      1473.0425      3162.6638      15382.469     -6743.5692     -31.934626      0.98940092     51780.144    
   6360000   508.82681      11517.949     -781.09492      1476.1879      3276.0242      15181.523     -6774.5223     -38.650124      0.99402361     51539.341    
   6380000   502.05809      11534.707     -814.4793       1467.0892      3202.5846      15340.499     -6795.0784     -44.333648      0.99327408     51578.233    
   6400000   493.41736      11453.636     -822.23354      1442.7486      3229.6628      15355.229     -6882.4535     -46.741707      0.9950413      51486.628    
   6420000   505.99621      11568.453     -848.53433      1471.0376      3204.7889      15353.971     -6756.2754     -34.666569      0.99608636     51432.61     
   6440000   489.93547      11839.063     -784.6825       1449.8739      3316.4301      15504.912     -6785.1132     -40.85271       0.99757684     51355.765    
   6460000   504.5982       11569.41      -835.2008       1470.3736      3289.9738      15278.372     -6773.9892     -38.2346        0.98456887     52034.269    
   6480000   491.99035      11609.147     -846.67412      1472.2         3294.6125      15299.198     -6746.2922     -42.199396      0.9919526      51646.945    
   6500000   499.83379      11786.169     -770.04121      1462.3843      3354.6241      15377.742     -6778.1474     -38.411936      0.98245502     52146.226    
   6520000   508.29874      11685.299     -800.16875      1482.9739      3244.7838      15442.176     -6824.7182     -37.864765      0.98620897     51947.734    
   6540000   497.75064      11577.55      -841.64259      1458.4084      3250.1069      15448.387     -6883.0442     -32.489819      0.99611343     51431.213    
   6560000   496.2564       11667.311     -794.82         1439.7914      3243.5194      15403.597     -6772.6866     -30.501294      0.99223213     51632.395    
   6580000   500.69224      11564.777     -791.64053      1440.1958      3165.3026      15331.085     -6716.4814     -42.341418      0.99410823     51534.954    
   6600000   498.21847      11729.249     -859.38984      1435.6857      3316.1907      15480.102     -6798.6831     -22.62384       0.98944752     51777.705    
   6620000   498.80517      11661.854     -744.36974      1451.4868      3228.9041      15307.127     -6719.4721     -40.368876      0.98766495     51871.155    
   6640000   508.82827      11800.247     -774.48314      1454.7879      3293.021       15415.355     -6735.5105     -31.197036      1.001275       51166.087    
   6660000   492.94506      11620.501     -806.18072      1454.5701      3175.7002      15464.579     -6816.312      -29.468426      0.98569074     51975.046    
   6680000   505.45431      11659.182     -831.9072       1474.3203      3204.4699      15447.776     -6773.8065     -40.11058       0.98739885     51885.134    
   6700000   498.78498      11709.745     -801.12069      1465.0175      3217.3465      15499.176     -6818.8987     -29.860339      1.0012899      51165.325    
   6720000   507.09969      11645.438     -785.78329      1460.4304      3239.9556      15368.092     -6782.748      -32.692144      0.99872429     51296.761    
   6740000   502.49187      11475.376     -836.12396      1412.3569      3285.6804      15285.213     -6820.4336     -29.487555      0.99701574     51384.667    
   6760000   494.96455      11619.386     -829.72664      1449.9598      3182.1161      15439.726     -6768.4215     -32.534228      0.9943392      51522.983    
   6780000   508.52078      11604.723     -815.03165      1452.7249      3323.6868      15263.137     -6760.1351     -37.841479      1.0062166      50914.805    
   6800000   496.50223      11598.38      -862.01802      1463.9623      3333.2461      15379.905     -6862.7448     -32.768956      0.99417424     51531.532    
   6820000   501.79366      11558.335     -799.60968      1463.3819      3107.4774      15390.809     -6748.3237     -34.188729      0.99393457     51543.958    
   6840000   502.361        11560.372     -860.48272      1410.5761      3272.3586      15394.554     -6801.2246     -34.931537      0.99759697     51354.728    
   6860000   502.2283       11705.867     -838.9117       1465.9079      3316.1875      15508.766     -6882.5392     -42.107986      0.99236132     51625.673    
   6880000   502.95088      11714.499     -777.61154      1435.4709      3370.4858      15351.512     -6810.4658     -32.68606       0.99775471     51346.61     
   6900000   497.65957      11690.972     -865.03901      1435.4587      3261.0534      15512.711     -6793.7888     -38.569173      0.99663637     51404.226    
   6920000   498.69379      11549.276     -793.34952      1462.9967      3203.3957      15420.898     -6893.8457     -28.905272      0.99023758     51736.394    
   6940000   501.33582      11553.945     -877.45504      1471.7325      3221.1854      15531.372     -6942.28       -28.358348      0.99965079     51249.218    
   6960000   494.66195      11563.136     -848.00276      1440.3731      3226.1936      15416.904     -6817.1774     -32.690015      0.99347292     51567.91     
   6980000   485.08652      11631.432     -783.24895      1460.5513      3188.8406      15404.474     -6786.3929     -31.329647      0.9879313      51857.17     
   7000000   502.3342       11719.963     -852.57783      1447.1514      3304.5104      15429.356     -6748.0006     -38.398489      0.99071843     51711.284    
   7020000   503.21587      11556.506     -911.80652      1459.4252      3252.2318      15352.48      -6731.8131     -41.825134      1.0106493      50691.494    
   7040000   497.03082      11653.481     -796.36142      1476.5637      3240.1576      15384.476     -6802.8789     -26.962945      1.0009918      51180.562    
   7060000   494.11102      11532.539     -843.54078      1466.708       3091.4293      15415.749     -6738.5516     -37.497033      1.0059498      50928.311    
   7080000   503.9001       11542.483     -781.9263       1461.8303      3288.8141      15212.574     -6776.2892     -40.892246      1.0000001      51231.319    
   7100000   499.8932       11594.31      -857.47926      1460.5299      3224.9093      15390.275     -6759.3143     -42.858953      1.0033764      51058.928    
   7120000   497.51864      11725.667     -863.28098      1480.3831      3349.7627      15298.733     -6679.8301     -38.140487      1.0045878      50997.358    
   7140000   503.15346      11614.21      -778.32         1448.6475      3224.0306      15377.733     -6796.122      -39.102654      0.99910499     51277.215    
   7160000   514.32905      11734.996     -809.62666      1493.2584      3231.2393      15421.529     -6740.0411     -39.811452      1.0036348      51045.779    
   7180000   508.26273      11692.124     -881.52319      1468.3925      3231.9755      15514.96      -6783.6285     -36.500294      1.0001041      51225.988    
   7200000   504.04495      11624.23      -839.094        1460.8339      3283.2778      15380.943     -6798.1373     -42.222347      0.98175039     52183.653    
   7200054   497.602        11616.116     -815.40795      1470.2576      3365.351       15282.299     -6824.3877     -40.463738      0.97704183     52435.136    
Loop time of 3982.69 on 24 procs for 1200000 steps with 5010 atoms

Performance: 6.508 ns/day, 3.688 hours/ns, 301.304 timesteps/s, 1.510 Matom-step/s
99.5% CPU use with 24 MPI tasks x no OpenMP threads

MPI task timing breakdown:
Section |  min time  |  avg time  |  max time  |%varavg| %total
---------------------------------------------------------------
Pair    | 1934.1     | 2136.4     | 2297.1     | 189.5 | 53.64
Bond    | 717.19     | 829.64     | 960.29     | 163.7 | 20.83
Kspace  | 598.95     | 818.99     | 1133.6     | 421.3 | 20.56
Neigh   | 36.331     | 36.368     | 36.42      |   0.4 |  0.91
Comm    | 113.77     | 116.1      | 118.45     |  10.9 |  2.92
Output  | 0.0038615  | 0.0048353  | 0.024208   |   5.8 |  0.00
Modify  | 30.942     | 32.459     | 34.407     |  17.8 |  0.82
Other   |            | 12.74      |            |       |  0.32

Nlocal:         208.75 ave         230 max         189 min
Histogram: 2 1 4 3 3 2 4 3 0 2
Nghost:        4748.71 ave        4820 max        4673 min
Histogram: 3 0 2 1 4 5 2 5 1 1
Neighs:        72431.2 ave       82264 max       64497 min
Histogram: 3 1 2 4 5 3 1 3 1 1

Total # of neighbors = 1738350
Ave neighs/atom = 346.97605
Ave special neighs/atom = 6.548503
Neighbor list builds = 12453
Dangerous builds = 0
PPPM initialization ...
  using 12-bit tables for long-range coulomb (../kspace.cpp:342)
  G vector (1/distance) = 0.094726499
  grid = 3 3 3
  stencil order = 5
  estimated absolute RMS force accuracy = 0.34513164
  estimated relative force accuracy = 0.0010393537
  using double precision KISS FFT
  3d grid and FFT values/proc = 252 3
Generated 28 of 28 mixed pair_coeff terms from sixthpower/sixthpower mixing rule
Setting up Verlet run ...
  Unit style    : real
  Current step  : 7200054
  Time step     : 0.25
WARNING: Inconsistent image flags (../domain.cpp:815)
Per MPI rank memory allocation (min/avg/max) = 16.8 | 16.8 | 16.81 Mbytes
   Step          Temp          PotEng         E_vdwl         E_coul         E_bond        E_angle        E_dihed        E_impro        Density         Volume    
   7200054   497.602        11616.043     -815.40795      1466.9717      3365.351       15282.299     -6824.3877     -40.463738      0.97704183     52435.136    
   7220000   479.81216      11312.392     -830.20412      1479.1533      3111.4464      15130.522     -6731.7287     -28.407126      1.0044769      51002.986    
   7240000   482.42553      11451.836     -854.91625      1488.4484      3168.4174      15202.582     -6697.7545     -37.336554      1.0073531      50857.362    
   7260000   477.63259      11185.936     -766.39483      1436.0535      3048.1015      15094.291     -6769.1227     -38.763593      0.98959323     51770.081    
   7280000   488.27462      11276.73      -864.87915      1421.8883      3124.399       15373.926     -6923.8601     -36.103176      1.0118655      50630.565    
   7300000   487.34602      11327.473     -834.21116      1427.3399      3189.2877      15229.695     -6827.8848     -38.336548      0.99825183     51321.039    
   7320000   478.66316      11256.676     -854.25267      1424.1826      3113.9598      15236.686     -6813.8462     -31.356994      1.0062915      50911.014    
   7340000   480.99307      11359.77      -876.07613      1466.4845      3187.5054      15307.772     -6870.0607     -36.832401      0.9909269      51700.404    
   7360000   479.78769      11415.243     -765.46338      1448.7439      3158.7563      15314.793     -6891.6229     -31.272288      0.99193901     51647.653    
   7380000   477.8106       11311.464     -877.33785      1436.5603      3176.4002      15317.761     -6888.9338     -34.243489      1.0009083      51184.829    
   7400000   475.65254      11162.254     -855.17305      1444.6308      3077.9555      15179.28      -6834.7049     -31.746185      1.0085754      50795.727    
   7420000   476.04769      11334.746     -870.36118      1469.7939      3134.8178      15313.281     -6866.1021     -28.841801      1.0036785      51043.558    
   7440000   487.9048       11408.634     -843.2789       1420.742       3129.2784      15285.658     -6719.3338     -45.379182      0.99643303     51414.716    
   7460000   481.52279      11186.016     -884.78632      1426.4616      3065.332       15242.018     -6811.5634     -32.454341      1.0064931      50900.82     
   7480000   486.48995      11398.997     -873.19445      1414.2305      3219.0554      15237.791     -6742.0056     -38.175754      0.99627528     51422.857    
[...]
  22860000   222.88195      6920.7288     -1455.9316      1429.799       1544.749       13281.177     -7009.5506     -27.317567      1.0842937      47248.565    
  22880000   221.16123      6935.0985     -1426.3132      1442.3242      1546.2395      13309.453     -7071.4017     -23.050957      1.082441       47329.437    
  22900000   217.8108       6838.8775     -1464.8321      1454.5654      1478.6459      13271.506     -7040.497      -18.573278      1.0957489      46754.619    
  22920000   217.13932      6965.3786     -1424.459       1451.1742      1569.5084      13275.825     -7035.6462     -28.653441      1.087455       47111.211    
  22940000   224.59727      6899.4133     -1423.2691      1439.6686      1544.1915      13273.205     -7064.9409     -27.293017      1.0874189      47112.775    
  22960000   217.2105       6963.7845     -1414.3875      1453.3446      1523.2868      13311.135     -7045.764      -21.51796       1.0899609      47002.899    
  22980000   220.25456      6980.0369     -1448.4145      1458.7605      1574.0855      13334.46      -7073.1704     -23.804288      1.0872051      47122.042    
  23000000   220.88643      6941.7524     -1448.3677      1424.9691      1550.665       13288.191     -7004.0297     -27.369615      1.092838       46879.156    
  23020000   218.27591      6977.5557     -1443.3617      1446.9208      1543.1873      13316.209     -7022.3274     -20.926205      1.0946995      46799.437    
  23040000   223.92033      7008.2416     -1455.3186      1455.7266      1599.5816      13334.756     -7060.753      -23.777755      1.0823433      47333.71     
  23060000   221.26653      6909.1603     -1455.4775      1429.3457      1592.9182      13266.877     -7052.2808     -30.212889      1.0871635      47123.843    
  23080000   218.95756      6979.9764     -1422.9022      1469.2048      1575.6541      13264.548     -7037.1947     -27.261866      1.0903405      46986.533    
  23100000   217.37786      6964.8758     -1429.3515      1431.0167      1606.6032      13301.153     -7079.2829     -23.242339      1.0805213      47413.524    
  23120000   220.5569       6983.0651     -1417.9525      1440.966       1581.4597      13291.963     -7036.2838     -35.028178      1.0930795      46868.796    
  23140000   217.68961      7002.7415     -1456.6708      1458.8191      1616.3037      13283.123     -7023.6755     -32.752281      1.0931392      46866.239    
  23160000   218.06232      6977.1922     -1432.1414      1445.631       1580.8224      13314.34      -7060.2758     -29.052866      1.0864942      47152.871    
  23180000   221.30905      6931.9914     -1441.5625      1449.1644      1559.8153      13252.375     -7013.5073     -32.242867      1.0918703      46920.702    
  23200000   222.04309      6967.3531     -1449.1461      1452.6889      1592.5798      13283.889     -7039.8943     -30.585489      1.0908229      46965.757    
  23220000   214.82576      6865.9653     -1417.4253      1439.9012      1502.844       13280.252     -7067.5529     -29.723682      1.0883522      47072.373    
  23240000   221.56669      6996.3055     -1413.5198      1449.8152      1556.6481      13326.652     -7057.9579     -22.847844      1.0859392      47176.971    
  23260000   218.62882      6959.317      -1458.7431      1457.4412      1607.9957      13256.874     -7035.4491     -26.637166      1.0925302      46892.36     
  23280000   219.64369      6885.5549     -1390.6239      1430.0999      1491.6557      13263.899     -7044.7237     -22.444866      1.0874019      47113.51     
  23300000   219.58952      6909.4174     -1440.1878      1443.6429      1533           13285.087     -7043.6731     -26.0209        1.0866765      47144.96     
  23320000   220.14439      6936.5365     -1475.8978      1451.2405      1568.7477      13298.57      -7040.2043     -23.53913       1.091779       46924.627    
  23340000   218.81877      6915.0664     -1462.3787      1455.1084      1536.3916      13317.378     -7059.2339     -29.646611      1.0878883      47092.446    
  23360000   220.00578      7029.7905     -1394.1245      1457.6545      1538.9443      13356.886     -7069.4024     -17.724127      1.0875901      47105.357    
  23380000   218.93543      6989.2441     -1437.0427      1449.0608      1564.6369      13360.28      -7080.2781     -24.94164       1.0897806      47010.674    
  23400000   219.29917      6955.5797     -1442.6799      1444.1731      1582.5289      13274.746     -7034.5548     -26.038814      1.0878818      47092.726    
  23420000   220.37323      6961.6951     -1429.8653      1459.3739      1587.7227      13301.598     -7093.7924     -20.829254      1.0835104      47282.72     
  23440000   221.41706      6961.8339     -1401.0063      1446.6357      1558.8321      13239.632     -7012.373      -27.262438      1.0877753      47097.34     
  23460000   222.64249      6950.378      -1440.8265      1442.9119      1588.9074      13254.966     -7029.2337     -23.863877      1.0887446      47055.408    
  23480000   215.24278      6922.5309     -1416.7015      1435.5524      1526.9575      13238.96      -6993.1241     -26.627111      1.0883382      47072.978    
  23500000   217.6685       7029.867      -1401.1748      1448.7698      1598.764       13273.768     -7022.5538     -25.440143      1.0856132      47191.138    
  23520000   219.63041      6965.9781     -1380.538       1445.6736      1526.3701      13291.467     -7046.1127     -28.466106      1.0876369      47103.333    
  23540000   219.17549      7002.3092     -1396.3662      1448.0579      1568.3477      13261.445     -7009.5627     -27.117188      1.0889529      47046.406    
  23560000   220.93267      6950.8862     -1421.446       1454.4265      1538.4248      13282.855     -7040.3751     -20.615387      1.0882376      47077.329    
  23580000   219.0307       6940.2838     -1415.0422      1427.5282      1518.607       13251.496     -6976.9356     -22.802342      1.0837671      47271.525    
  23600000   218.99099      6935.4164     -1414.1569      1440.9279      1552.06        13319.297     -7094.2564     -26.113322      1.0893942      47027.35     
  23620000   223.1994       7009.5136     -1404.0536      1448.5106      1613.2516      13330.057     -7111.797      -23.83842       1.0830403      47303.245    
  23640000   220.46909      6977.5894     -1414.0887      1464.1153      1550.3877      13296.678     -7058.9309     -18.154612      1.0813846      47375.674    
  23660000   223.80644      6920.8116     -1418.3355      1433.6294      1549.5854      13315.199     -7087.9028     -28.964557      1.0793463      47465.139    
  23680000   216.97051      7014.6247     -1423.0189      1463.0545      1558.7145      13386.35      -7101.2281     -26.805981      1.0841643      47254.204    
  23700000   217.75572      6909.9619     -1384.1345      1436.7281      1469.6647      13322.296     -7071.8576     -20.165334      1.0866186      47147.475    
  23720000   219.96809      6920.2394     -1400.063       1422.7674      1565.3934      13236.741     -7041.0106     -21.181772      1.082904       47309.199    
  23740000   223.43921      6993.1966     -1412.067       1434.814       1576.5251      13370.251     -7112.504      -21.21903       1.083345       47289.941    
  23760000   220.91829      6949.9754     -1428.2026      1452.0858      1557.5617      13286.174     -7053.676      -21.652118      1.0906308      46974.026    
  23780000   222.69436      6970.7771     -1443.0538      1465.0713      1570.2867      13331.43      -7080.1877     -30.614546      1.0851551      47211.06     
  23800000   221.43206      6963.3348     -1392.0973      1447.6326      1554.4461      13310.511     -7095.0993     -19.83524       1.0889379      47047.054    
  23820000   215.8381       6885.6694     -1411.172       1429.9332      1506.5038      13313.466     -7083.6707     -26.941624      1.0882618      47076.285    
  23840000   220.67045      7028.1301     -1416.8077      1447.9201      1594.5306      13375.516     -7106.4819     -24.144347      1.0817326      47360.432    
  23860000   218.35671      6961.619      -1426.1598      1469.3042      1502.9197      13362.753     -7077.4349     -27.343325      1.0943269      46815.373    
  23880000   220.92781      6979.6568     -1421.8088      1449.4216      1597.618       13324.175     -7097.6885     -29.819643      1.0876071      47104.622    
  23900000   217.96037      6972.2413     -1382.0357      1451.4191      1518.0872      13327.327     -7074.5013     -25.9254        1.0803821      47419.634    
  23920000   222.25602      6957.1923     -1393.7715      1438.8805      1566.9323      13271.439     -7054.4176     -29.524914      1.0792181      47470.776    
  23940000   224.0391       6980.4969     -1385.9965      1456.2019      1549.3303      13269.961     -7044.8203     -21.694825      1.0839096      47265.31     
  23960000   217.4987       6902.0478     -1426.5229      1433.4559      1535.3792      13313.829     -7086.723      -25.257027      1.0886595      47059.085    
  23980000   217.69638      6918.1302     -1441.3478      1433.4831      1557.2349      13255.271     -7016.888      -27.375774      1.0843271      47247.111    
  24000000   221.51847      6950.579      -1427.9439      1465.6485      1559.0442      13278.773     -7059.4692     -23.333922      1.0835438      47281.263    
  24000054   220.30228      7000.2272     -1404.5891      1466.1048      1546.6662      13324.017     -7064.6859     -25.12678       1.0829607      47306.721    
Loop time of 4167.78 on 24 procs for 1200000 steps with 5010 atoms

Performance: 6.219 ns/day, 3.859 hours/ns, 287.923 timesteps/s, 1.442 Matom-step/s
99.5% CPU use with 24 MPI tasks x no OpenMP threads

MPI task timing breakdown:
Section |  min time  |  avg time  |  max time  |%varavg| %total
---------------------------------------------------------------
Pair    | 2063.1     | 2330.7     | 2552       | 245.2 | 55.92
Bond    | 703.03     | 827.26     | 966.37     | 221.7 | 19.85
Kspace  | 500.09     | 826.11     | 1150.1     | 577.6 | 19.82
Neigh   | 18.124     | 18.149     | 18.172     |   0.3 |  0.44
Comm    | 117.45     | 119.96     | 122.38     |  12.0 |  2.88
Output  | 0.0031827  | 0.0036527  | 0.013921   |   3.5 |  0.00
Modify  | 30.735     | 32.508     | 34.508     |  18.2 |  0.78
Other   |            | 13.08      |            |       |  0.31

Nlocal:         208.75 ave         218 max         182 min
Histogram: 1 0 0 1 1 2 2 4 8 5
Nghost:        5082.71 ave        5115 max        5061 min
Histogram: 3 3 3 3 4 3 2 0 2 1
Neighs:        80109.3 ave       86647 max       65704 min
Histogram: 1 0 0 1 1 3 5 4 8 1

Total # of neighbors = 1922623
Ave neighs/atom = 383.75709
Ave special neighs/atom = 6.548503
Neighbor list builds = 6069
Dangerous builds = 0
PPPM initialization ...
  using 12-bit tables for long-range coulomb (../kspace.cpp:342)
  G vector (1/distance) = 0.097311429
  grid = 3 3 3
  stencil order = 5
  estimated absolute RMS force accuracy = 0.34576073
  estimated relative force accuracy = 0.0010412482
  using double precision KISS FFT
  3d grid and FFT values/proc = 252 3
Generated 28 of 28 mixed pair_coeff terms from sixthpower/sixthpower mixing rule
Setting up Verlet run ...
  Unit style    : real
  Current step  : 24000054
  Time step     : 0.25
WARNING: Inconsistent image flags (../domain.cpp:815)
Per MPI rank memory allocation (min/avg/max) = 16.8 | 16.8 | 16.81 Mbytes
   Step          Temp          PotEng         E_vdwl         E_coul         E_bond        E_angle        E_dihed        E_impro        Density         Volume    
  24000054   220.30228      7000.1933     -1404.5891      1465.2049      1546.6662      13324.017     -7064.6859     -25.12678       1.0829607      47306.721    
  24020000   200.71881      6655.6561     -1490.5098      1439.5068      1440.0643      13198.14      -7062.9135     -27.65617       1.087242       47120.442    
  24040000   196.32169      6694.8545     -1507.1141      1431.5064      1519.9777      13179.858     -7062.559      -25.449333      1.0831439      47298.723    
  24060000   200.46811      6679.3615     -1445.3419      1433.7633      1431.951       13154.281     -7028.7874     -25.242666      1.0975908      46676.157    
  24080000   202.43375      6709.7485     -1446.8335      1443.3913      1422.2898      13284.006     -7130.5473     -21.507873      1.0837971      47270.215    
  24100000   197.86116      6619.7854     -1461.5842      1450.3951      1421.4295      13140.879     -7064.4293     -25.797586      1.0951405      46780.593    
  24120000   199.56364      6668.1119     -1449.6212      1422.5181      1436.2927      13179.272     -7054.8265     -24.070391      1.0816556      47363.801    
  24140000   201.35077      6708.015      -1447.0447      1425.0469      1455.4268      13182.275     -7044.1779     -22.196943      1.09108        46954.69     
  24160000   201.01063      6670.2537     -1482.1924      1449.0344      1421.4527      13196.648     -7039.0683     -34.311033      1.0922703      46903.518    
  24180000   198.45392      6579.4672     -1472.4658      1411.7713      1411.194       13128.043     -7032.5443     -24.968952      1.0972887      46689.009    
  24200000   197.50264      6602.3165     -1441.3722      1416.8709      1456.6726      13118.839     -7080.9373     -26.246186      1.0900655      46998.386    
  24220000   198.32769      6669.4986     -1468.0505      1425.9763      1450.3725      13183.406     -7053.803      -27.102525      1.0930442      46870.31     
  24240000   198.79647      6672.9057     -1467.6789      1409.2017      1489.9194      13148.427     -7040.5837     -25.09684       1.0908624      46964.053    
  24260000   196.02223      6542.0043     -1463.3681      1432.9314      1408.756       13134.876     -7105.5399     -24.257355      1.0983358      46644.496    
  24280000   202.62506      6595.8769     -1455.3595      1435.2568      1420.1582      13143.51      -7080.4189     -25.749807      1.0939357      46832.115    
  24300000   198.15501      6603.4599     -1472.9237      1409.9885      1433.3394      13125.196     -7022.9162     -27.775217      1.0956565      46758.56     
  24320000   199.62546      6629.6456     -1450.0209      1424.1095      1425.535       13188.75      -7092.974      -24.21019       1.0998591      46579.894    
  24340000   200.65516      6644.027      -1447.6081      1434.9288      1359.3898      13180.995     -7019.6075     -22.538966      1.0926384      46887.719    
  24360000   203.83368      6620.283      -1454.017       1423.658       1423.196       13190.81      -7096.379      -25.555388      1.0922745      46903.341    
  24380000   195.01761      6678.1679     -1466.123       1450.7057      1454.5199      13178.695     -7076.9029     -21.15538       1.0910393      46956.438    
  24400000   198.24419      6675.0403     -1470.0288      1452.4865      1416.8086      13200.966     -7061.6021     -22.141135      1.0912514      46947.312    
  24420000   200.40613      6633.5736     -1459.0089      1435.6707      1422.984       13173.108     -7072.9199     -24.800278      1.0881038      47083.121    
  24440000   195.4841       6608.4811     -1478.7079      1445.1097      1403.2608      13160.675     -7056.6753     -23.709548      1.0952309      46776.731    
  24460000   199.16178      6638.0596     -1463.5026      1430.6809      1408.4715      13246.542     -7117.1545     -25.442484      1.0950908      46782.716    
  24480000   197.02812      6601.9906     -1451.613       1430.2653      1429.1356      13142.007     -7081.3189     -25.262797      1.0915466      46934.618    
  24500000   199.96069      6619.3597     -1429.1397      1418.3705      1467.5206      13113.863     -7090.2896     -19.961511      1.0897944      47010.079    
  24520000   200.95861      6665.3026     -1472.5858      1444.5526      1411.0727      13174.105     -7023.6641     -26.973035      1.0958729      46749.329    
  24540000   196.80685      6605.9423     -1410.2738      1437.1252      1448.8456      13077.159     -7076.8859     -28.79333       1.0909357      46960.9      
  24560000   202.95661      6631.7348     -1477.243       1438.0846      1440.7183      13172.036     -7075.788      -24.673837      1.0925389      46891.987    
  24580000   203.86055      6643.5222     -1428.3362      1435.1435      1408.0303      13173.283     -7077.1493     -26.00069       1.0925986      46889.427    
  24600000   193.6562       6701.9659     -1441.752       1441.3805      1490.2222      13176.604     -7100.2496     -22.842544      1.1013974      46514.837    
  24620000   199.09585      6662.7661     -1505.6443      1450.1829      1473.9155      13208.965     -7100.2584     -23.090902      1.0904519      46981.735    
  24640000   200.59178      6669.1596     -1460.7901      1447.5534      1483.9104      13152.094     -7087.6378     -24.794854      1.0887773      47053.996    
  24660000   200.01243      6579.2598     -1469.4392      1438.1923      1398.2898      13133.886     -7055.0709     -25.032083      1.0882563      47076.522    
  24680000   204.74777      6548.4024     -1433.2099      1432.7389      1374.3841      13070.375     -7020.2739     -34.312788      1.0965003      46722.577    
  24700000   199.27264      6678.2839     -1476.4058      1445.3793      1454.3199      13218.425     -7097.6737     -24.277518      1.0894637      47024.351    
  24720000   202.34566      6684.1849     -1451.1204      1448.177       1436.0709      13167.919     -7050.5376     -24.907308      1.0928351      46879.278    
  24740000   201.7171       6683.9629     -1456.2493      1443.3922      1451.9462      13195.159     -7080.5719     -28.320861      1.0913744      46942.022    
  24760000   197.68094      6681.0043     -1447.4018      1445.4517      1423.7051      13226.814     -7095.5453     -30.697219      1.0923277      46901.053    
  24780000   196.85291      6663.3871     -1432.8048      1447.4615      1417.3422      13144.718     -7046.3588     -25.58366       1.0898138      47009.242    
  24800000   198.14592      6600.8748     -1439.9268      1439.2121      1418.9996      13220.582     -7172.4233     -24.103301      1.0930859      46868.522    
  24820000   194.98192      6628.3045     -1461.8202      1454.7729      1466.7044      13116.435     -7085.0226     -21.498702      1.0954364      46767.955    
  24840000   198.98212      6675.6024     -1456.8747      1458.0202      1435.015       13193.379     -7086.0487     -26.293834      1.0919846      46915.791    
  24860000   199.86782      6636.0432     -1457.1653      1430.8701      1422.7943      13149.129     -7041.4894     -26.587696      1.0872726      47119.113    
  24880000   197.25961      6598.4176     -1426.4594      1440.0597      1403.5019      13116.071     -7072.4757     -20.774348      1.0884658      47067.463    
  24900000   199.01596      6690.6223     -1423.3614      1439.2018      1439.1579      13168.362     -7062.3837     -28.821091      1.0900489      46999.104    
  24920000   202.94597      6662.5595     -1446.3906      1447.9713      1417.8605      13110.602     -7001.4123     -24.599256      1.0937339      46840.753    
  24940000   199.68112      6643.9752     -1454.9533      1421.519       1432.9858      13137.89      -7025.2286     -26.727531      1.0933271      46858.185    
  24960000   199.01264      6641.1991     -1446.1862      1442.4037      1425.1389      13146.427     -7060.476      -24.923356      1.0918385      46922.069    
  24980000   200.60439      6619.8118     -1452.4052      1449.7459      1434.2919      13134.768     -7075.888      -29.339229      1.0893778      47028.058    
  25000000   198.63628      6613.6499     -1476.4213      1422.3976      1452.5418      13143.866     -7061.2459     -26.237642      1.0934119      46854.551    
