LAMMPS data file via write_data, version 22 Dec 2022, timestep = 300000

5010 atoms
8 atom types
5405 bonds
13 bond types
11200 angles
29 angle types
18384 dihedrals
46 dihedral types
7200 impropers
29 improper types

5.3337238033517345 43.13270471665043 xlo xhi
5.3337238033517345 43.13270471665043 ylo yhi
5.3337238033517345 43.13270471665043 zlo zhi

Masses

1 12.01115
2 12.01115
3 12.01115
4 1.00797
5 1.00797
6 15.9994
7 15.9994
8 15.9994

Pair Coeffs # lj/class2/coul/long

1 0.054 4.01
2 0.054 4.01
3 0.054 4.01
4 0.02 2.995
5 0.02 2.995
6 0.24 3.535
7 0.24 3.535
8 0.24 3.535

Bond Coeffs # class2

1 1.53 299.67 -501.77 679.81
2 1.53 299.67 -501.77 679.81
3 1.53 299.67 -501.77 679.81
4 1.101 345 -691.89 844.6
5 1.42 400.395 -835.195 1313.01
6 1.42 400.395 -835.195 1313.01
7 1.42 400.395 -835.195 1313.01
8 1.53 299.67 -501.77 679.81
9 1.101 345 -691.89 844.6
10 1.42 400.395 -835.195 1313.01
11 1.101 345 -691.89 844.6
12 1.42 400.395 -835.195 1313.01
13 0.96 493.848 0 0

Angle Coeffs # class2

1 112.67 39.516 -7.443 -9.5583
2 110.77 41.453 -10.604 5.129
3 111.27 54.5381 -8.3642 -13.0838
4 112.67 39.516 -7.443 -9.5583
5 112.67 39.516 -7.443 -9.5583
6 110.77 41.453 -10.604 5.129
7 111.27 54.5381 -8.3642 -13.0838
8 112.67 39.516 -7.443 -9.5583
9 110.77 41.453 -10.604 5.129
10 111.27 54.5381 -8.3642 -13.0838
11 104.5 35.7454 -10.0067 -6.2729
12 104.5 35.7454 -10.0067 -6.2729
13 104.5 35.7454 -10.0067 -6.2729
14 109 58.5 0 0
15 112.67 39.516 -7.443 -9.5583
16 110.77 41.453 -10.604 5.129
17 111.27 54.5381 -8.3642 -13.0838
18 111.27 54.5381 -8.3642 -13.0838
19 112.67 39.516 -7.443 -9.5583
20 110.77 41.453 -10.604 5.129
21 110.77 41.453 -10.604 5.129
22 111.27 54.5381 -8.3642 -13.0838
23 111.27 54.5381 -8.3642 -13.0838
24 107.66 39.641 -12.921 -2.4318
25 108.728 58.5446 -10.8088 -12.4006
26 108.728 58.5446 -10.8088 -12.4006
27 108.728 58.5446 -10.8088 -12.4006
28 108.728 58.5446 -10.8088 -12.4006
29 108.728 58.5446 -10.8088 -12.4006

BondBond Coeffs

1 0 1.53 1.53
2 3.3872 1.53 1.101
3 11.4318 1.53 1.42
4 0 1.53 1.53
5 0 1.53 1.53
6 3.3872 1.53 1.101
7 11.4318 1.53 1.42
8 0 1.53 1.53
9 3.3872 1.53 1.101
10 11.4318 1.53 1.42
11 -7.1131 1.42 1.42
12 -7.1131 1.42 1.42
13 -7.1131 1.42 1.42
14 0 1.42 0.96
15 0 1.53 1.53
16 3.3872 1.53 1.101
17 11.4318 1.53 1.42
18 11.4318 1.53 1.42
19 0 1.53 1.53
20 3.3872 1.53 1.101
21 3.3872 1.53 1.101
22 11.4318 1.53 1.42
23 11.4318 1.53 1.42
24 5.3316 1.101 1.101
25 23.1979 1.101 1.42
26 23.1979 1.101 1.42
27 23.1979 1.101 1.42
28 23.1979 1.101 1.42
29 23.1979 1.101 1.42

BondAngle Coeffs

1 8.016 8.016 1.53 1.53
2 11.421 20.754 1.53 1.101
3 2.6868 20.4033 1.53 1.42
4 8.016 8.016 1.53 1.53
5 8.016 8.016 1.53 1.53
6 11.421 20.754 1.53 1.101
7 2.6868 20.4033 1.53 1.42
8 8.016 8.016 1.53 1.53
9 11.421 20.754 1.53 1.101
10 2.6868 20.4033 1.53 1.42
11 -2.8112 -2.8112 1.42 1.42
12 -2.8112 -2.8112 1.42 1.42
13 -2.8112 -2.8112 1.42 1.42
14 0 0 1.42 0.96
15 8.016 8.016 1.53 1.53
16 20.754 11.421 1.53 1.101
17 2.6868 20.4033 1.53 1.42
18 2.6868 20.4033 1.53 1.42
19 8.016 8.016 1.53 1.53
20 20.754 11.421 1.53 1.101
21 11.421 20.754 1.53 1.101
22 2.6868 20.4033 1.53 1.42
23 20.4033 2.6868 1.53 1.42
24 18.103 18.103 1.101 1.101
25 4.6189 55.327 1.101 1.42
26 4.6189 55.327 1.101 1.42
27 4.6189 55.327 1.101 1.42
28 4.6189 55.327 1.101 1.42
29 4.6189 55.327 1.101 1.42

Dihedral Coeffs # class2

1 0 0 0.0316 0 -0.1681 0
2 0.7137 0 0.266 0 -0.2545 0
3 -0.5203 0 -0.3028 0 -0.345 0
4 -0.5203 0 -0.3028 0 -0.345 0
5 0 0 0.0514 0 -0.143 0
6 0 0 0.0316 0 -0.1681 0
7 0.7137 0 0.266 0 -0.2545 0
8 0.7137 0 0.266 0 -0.2545 0
9 0 0 0.0514 0 -0.143 0
10 0 0 0.0514 0 -0.143 0
11 0 0 0.0316 0 -0.1681 0
12 -0.5203 0 -0.3028 0 -0.345 0
13 0 0 0.0316 0 -0.1681 0
14 0.7137 0 0.266 0 -0.2545 0
15 0.7137 0 0.266 0 -0.2545 0
16 -0.5203 0 -0.3028 0 -0.345 0
17 0.5302 0 0 0 -0.3966 0
18 -0.5203 0 -0.3028 0 -0.345 0
19 -0.5203 0 -0.3028 0 -0.345 0
20 0.5302 0 0 0 -0.3966 0
21 0.5302 0 0 0 -0.3966 0
22 0 0 0.0514 0 -0.143 0
23 0 0 0.0316 0 -0.1681 0
24 -0.5203 0 -0.3028 0 -0.345 0
25 0 0 0 0 0.13 180
26 0 0 0.0316 0 -0.1681 0
27 0.7137 0 0.266 0 -0.2545 0
28 0 0 0.0514 0 -0.143 0
29 0 0 0.0316 0 -0.1681 0
30 0.5302 0 0 0 -0.3966 0
31 0.5302 0 0 0 -0.3966 0
32 0 0 0 0 0.13 180
33 -0.1432 0 0.0617 0 -0.1083 0
34 -0.1435 0 0.253 0 -0.0905 0
35 -0.1432 0 0.0617 0 -0.1083 0
36 -0.1435 0 0.253 0 -0.0905 0
37 -0.1432 0 0.0617 0 -0.1083 0
38 -0.1435 0 0.253 0 -0.0905 0
39 -0.1435 0 0.253 0 -0.0905 0
40 -0.1435 0 0.253 0 -0.0905 0
41 -0.1432 0 0.0617 0 -0.1083 0
42 -0.1435 0 0.253 0 -0.0905 0
43 -0.1435 0 0.253 0 -0.0905 0
44 -0.182 0 -0.1084 0 -0.7047 0
45 -0.182 0 -0.1084 0 -0.7047 0
46 -0.182 0 -0.1084 0 -0.7047 0

AngleAngleTorsion Coeffs

1 -16.164 112.67 110.77
2 -29.042 112.67 111.27
3 -19.0059 111.27 104.5
4 -19.0059 111.27 104.5
5 -22.045 112.67 112.67
6 -16.164 112.67 110.77
7 -29.042 112.67 111.27
8 -29.042 112.67 111.27
9 -22.045 112.67 112.67
10 -22.045 112.67 112.67
11 -16.164 112.67 110.77
12 -19.0059 111.27 104.5
13 -16.164 112.67 110.77
14 -29.042 112.67 111.27
15 -29.042 112.67 111.27
16 -19.0059 111.27 104.5
17 -16.4438 104.5 108.728
18 -19.0059 104.5 111.27
19 -19.0059 104.5 111.27
20 -16.4438 104.5 108.728
21 -16.4438 104.5 108.728
22 -22.045 112.67 112.67
23 -16.164 112.67 110.77
24 -19.0059 111.27 104.5
25 0 111.27 109
26 -16.164 112.67 110.77
27 -29.042 112.67 111.27
28 -22.045 112.67 112.67
29 -16.164 112.67 110.77
30 -16.4438 104.5 108.728
31 -16.4438 104.5 108.728
32 0 109 108.728
33 -12.564 110.77 110.77
34 -20.2006 110.77 111.27
35 -12.564 110.77 110.77
36 -20.2006 110.77 111.27
37 -12.564 110.77 110.77
38 -20.2006 110.77 111.27
39 -20.2006 110.77 111.27
40 -20.2006 110.77 111.27
41 -12.564 110.77 110.77
42 -20.2006 110.77 111.27
43 -20.2006 110.77 111.27
44 -14.0484 111.27 111.27
45 -14.0484 111.27 111.27
46 -14.0484 111.27 111.27

EndBondTorsion Coeffs

1 0.0814 0.0591 0.2219 0.2486 0.2422 -0.0925 1.53 1.101
2 -0.319 0.4411 -0.7174 1.1538 0.8409 -0.9138 1.53 1.42
3 -0.2456 1.0517 -0.7795 0.4741 1.2635 0.5576 1.53 1.42
4 0.4741 1.2635 0.5576 -0.2456 1.0517 -0.7795 1.53 1.42
5 -0.0732 0 0 -0.0732 0 0 1.53 1.53
6 0.0814 0.0591 0.2219 0.2486 0.2422 -0.0925 1.53 1.101
7 -0.319 0.4411 -0.7174 1.1538 0.8409 -0.9138 1.53 1.42
8 -0.319 0.4411 -0.7174 1.1538 0.8409 -0.9138 1.53 1.42
9 -0.0732 0 0 -0.0732 0 0 1.53 1.53
10 -0.0732 0 0 -0.0732 0 0 1.53 1.53
11 0.0814 0.0591 0.2219 0.2486 0.2422 -0.0925 1.53 1.101
12 -0.2456 1.0517 -0.7795 0.4741 1.2635 0.5576 1.53 1.42
13 0.0814 0.0591 0.2219 0.2486 0.2422 -0.0925 1.53 1.101
14 -0.319 0.4411 -0.7174 1.1538 0.8409 -0.9138 1.53 1.42
15 -0.319 0.4411 -0.7174 1.1538 0.8409 -0.9138 1.53 1.42
16 -0.2456 1.0517 -0.7795 0.4741 1.2635 0.5576 1.53 1.42
17 -0.6054 1.3339 0.9648 -0.162 0.1564 -1.1408 1.42 1.101
18 -0.2456 1.0517 -0.7795 0.4741 1.2635 0.5576 1.42 1.53
19 0.4741 1.2635 0.5576 -0.2456 1.0517 -0.7795 1.42 1.53
20 -0.6054 1.3339 0.9648 -0.162 0.1564 -1.1408 1.42 1.101
21 -0.6054 1.3339 0.9648 -0.162 0.1564 -1.1408 1.42 1.101
22 -0.0732 0 0 -0.0732 0 0 1.53 1.53
23 0.2486 0.2422 -0.0925 0.0814 0.0591 0.2219 1.53 1.101
24 -0.2456 1.0517 -0.7795 0.4741 1.2635 0.5576 1.53 1.42
25 0 0 0 0 0 0 1.53 0.96
26 0.2486 0.2422 -0.0925 0.0814 0.0591 0.2219 1.53 1.101
27 -0.319 0.4411 -0.7174 1.1538 0.8409 -0.9138 1.53 1.42
28 -0.0732 0 0 -0.0732 0 0 1.53 1.53
29 0.2486 0.2422 -0.0925 0.0814 0.0591 0.2219 1.53 1.101
30 -0.162 0.1564 -1.1408 -0.6054 1.3339 0.9648 1.42 1.101
31 -0.6054 1.3339 0.9648 -0.162 0.1564 -1.1408 1.42 1.101
32 0 0 0 0 0 0 0.96 1.101
33 0.213 0.312 0.0777 0.213 0.312 0.0777 1.101 1.101
34 0.9681 0.9551 0.0436 0.5903 0.6669 0.8584 1.101 1.42
35 0.213 0.312 0.0777 0.213 0.312 0.0777 1.101 1.101
36 0.9681 0.9551 0.0436 0.5903 0.6669 0.8584 1.101 1.42
37 0.213 0.312 0.0777 0.213 0.312 0.0777 1.101 1.101
38 0.9681 0.9551 0.0436 0.5903 0.6669 0.8584 1.101 1.42
39 0.9681 0.9551 0.0436 0.5903 0.6669 0.8584 1.101 1.42
40 0.9681 0.9551 0.0436 0.5903 0.6669 0.8584 1.101 1.42
41 0.213 0.312 0.0777 0.213 0.312 0.0777 1.101 1.101
42 0.9681 0.9551 0.0436 0.5903 0.6669 0.8584 1.101 1.42
43 0.9681 0.9551 0.0436 0.5903 0.6669 0.8584 1.101 1.42
44 1.0165 0.7553 -0.4609 1.0165 0.7553 -0.4609 1.42 1.42
45 1.0165 0.7553 -0.4609 1.0165 0.7553 -0.4609 1.42 1.42
46 1.0165 0.7553 -0.4609 1.0165 0.7553 -0.4609 1.42 1.42

MiddleBondTorsion Coeffs

1 -14.879 -3.6581 -0.3138 1.53
2 -21.8842 -7.6764 -0.6868 1.53
3 -5.9288 -2.7007 -0.3175 1.42
4 -5.9288 -2.7007 -0.3175 1.42
5 -17.787 -7.1877 0 1.53
6 -14.879 -3.6581 -0.3138 1.53
7 -21.8842 -7.6764 -0.6868 1.53
8 -21.8842 -7.6764 -0.6868 1.53
9 -17.787 -7.1877 0 1.53
10 -17.787 -7.1877 0 1.53
11 -14.879 -3.6581 -0.3138 1.53
12 -5.9288 -2.7007 -0.3175 1.42
13 -14.879 -3.6581 -0.3138 1.53
14 -21.8842 -7.6764 -0.6868 1.53
15 -21.8842 -7.6764 -0.6868 1.53
16 -5.9288 -2.7007 -0.3175 1.42
17 -6.8007 -4.6546 -1.4101 1.42
18 -5.9288 -2.7007 -0.3175 1.42
19 -5.9288 -2.7007 -0.3175 1.42
20 -6.8007 -4.6546 -1.4101 1.42
21 -6.8007 -4.6546 -1.4101 1.42
22 -17.787 -7.1877 0 1.53
23 -14.879 -3.6581 -0.3138 1.53
24 -5.9288 -2.7007 -0.3175 1.42
25 0 0 0 1.42
26 -14.879 -3.6581 -0.3138 1.53
27 -21.8842 -7.6764 -0.6868 1.53
28 -17.787 -7.1877 0 1.53
29 -14.879 -3.6581 -0.3138 1.53
30 -6.8007 -4.6546 -1.4101 1.42
31 -6.8007 -4.6546 -1.4101 1.42
32 0 0 0 1.42
33 -14.261 -0.5322 -0.4864 1.53
34 -16.7975 -1.2296 -0.275 1.53
35 -14.261 -0.5322 -0.4864 1.53
36 -16.7975 -1.2296 -0.275 1.53
37 -14.261 -0.5322 -0.4864 1.53
38 -16.7975 -1.2296 -0.275 1.53
39 -16.7975 -1.2296 -0.275 1.53
40 -16.7975 -1.2296 -0.275 1.53
41 -14.261 -0.5322 -0.4864 1.53
42 -16.7975 -1.2296 -0.275 1.53
43 -16.7975 -1.2296 -0.275 1.53
44 -17.2585 -3.6157 -0.8364 1.53
45 -17.2585 -3.6157 -0.8364 1.53
46 -17.2585 -3.6157 -0.8364 1.53

BondBond13 Coeffs

1 0 1.53 1.101
2 0 1.53 1.42
3 0 1.53 1.42
4 0 1.53 1.42
5 0 1.53 1.53
6 0 1.53 1.101
7 0 1.53 1.42
8 0 1.53 1.42
9 0 1.53 1.53
10 0 1.53 1.53
11 0 1.53 1.101
12 0 1.53 1.42
13 0 1.53 1.101
14 0 1.53 1.42
15 0 1.53 1.42
16 0 1.53 1.42
17 0 1.42 1.101
18 0 1.42 1.53
19 0 1.42 1.53
20 0 1.42 1.101
21 0 1.42 1.101
22 0 1.53 1.53
23 0 1.53 1.101
24 0 1.53 1.42
25 0 1.53 0.96
26 0 1.53 1.101
27 0 1.53 1.42
28 0 1.53 1.53
29 0 1.53 1.101
30 0 1.42 1.101
31 0 1.42 1.101
32 0 0.96 1.101
33 0 1.101 1.101
34 0 1.101 1.42
35 0 1.101 1.101
36 0 1.101 1.42
37 0 1.101 1.101
38 0 1.101 1.42
39 0 1.101 1.42
40 0 1.101 1.42
41 0 1.101 1.101
42 0 1.101 1.42
43 0 1.101 1.42
44 0 1.42 1.42
45 0 1.42 1.42
46 0 1.42 1.42

AngleTorsion Coeffs

1 0.3113 0.4516 -0.1988 -0.2454 0 -0.1136 112.67 110.77
2 0.5623 -0.3041 -0.4015 0.9672 -0.7566 -1.2331 112.67 111.27
3 -2.7466 1.4877 -0.8955 0.5676 0.945 0.0703 111.27 104.5
4 0.5676 0.945 0.0703 -2.7466 1.4877 -0.8955 111.27 104.5
5 0.3886 -0.3139 0.1389 0.3886 -0.3139 0.1389 112.67 112.67
6 0.3113 0.4516 -0.1988 -0.2454 0 -0.1136 112.67 110.77
7 0.5623 -0.3041 -0.4015 0.9672 -0.7566 -1.2331 112.67 111.27
8 0.5623 -0.3041 -0.4015 0.9672 -0.7566 -1.2331 112.67 111.27
9 0.3886 -0.3139 0.1389 0.3886 -0.3139 0.1389 112.67 112.67
10 0.3886 -0.3139 0.1389 0.3886 -0.3139 0.1389 112.67 112.67
11 0.3113 0.4516 -0.1988 -0.2454 0 -0.1136 112.67 110.77
12 -2.7466 1.4877 -0.8955 0.5676 0.945 0.0703 111.27 104.5
13 0.3113 0.4516 -0.1988 -0.2454 0 -0.1136 112.67 110.77
14 0.5623 -0.3041 -0.4015 0.9672 -0.7566 -1.2331 112.67 111.27
15 0.5623 -0.3041 -0.4015 0.9672 -0.7566 -1.2331 112.67 111.27
16 -2.7466 1.4877 -0.8955 0.5676 0.945 0.0703 111.27 104.5
17 -1.8234 1.6393 0.5144 -0.7777 0.434 -0.6653 104.5 108.728
18 -2.7466 1.4877 -0.8955 0.5676 0.945 0.0703 104.5 111.27
19 0.5676 0.945 0.0703 -2.7466 1.4877 -0.8955 104.5 111.27
20 -1.8234 1.6393 0.5144 -0.7777 0.434 -0.6653 104.5 108.728
21 -1.8234 1.6393 0.5144 -0.7777 0.434 -0.6653 104.5 108.728
22 0.3886 -0.3139 0.1389 0.3886 -0.3139 0.1389 112.67 112.67
23 -0.2454 0 -0.1136 0.3113 0.4516 -0.1988 112.67 110.77
24 -2.7466 1.4877 -0.8955 0.5676 0.945 0.0703 111.27 104.5
25 0 0 0 0 0 0 111.27 109
26 -0.2454 0 -0.1136 0.3113 0.4516 -0.1988 112.67 110.77
27 0.5623 -0.3041 -0.4015 0.9672 -0.7566 -1.2331 112.67 111.27
28 0.3886 -0.3139 0.1389 0.3886 -0.3139 0.1389 112.67 112.67
29 -0.2454 0 -0.1136 0.3113 0.4516 -0.1988 112.67 110.77
30 -0.7777 0.434 -0.6653 -1.8234 1.6393 0.5144 104.5 108.728
31 -1.8234 1.6393 0.5144 -0.7777 0.434 -0.6653 104.5 108.728
32 0 0 0 0 0 0 109 108.728
33 -0.8085 0.5569 -0.2466 -0.8085 0.5569 -0.2466 110.77 110.77
34 2.3668 2.492 -1.0122 -0.1892 0.4918 0.7273 110.77 111.27
35 -0.8085 0.5569 -0.2466 -0.8085 0.5569 -0.2466 110.77 110.77
36 2.3668 2.492 -1.0122 -0.1892 0.4918 0.7273 110.77 111.27
37 -0.8085 0.5569 -0.2466 -0.8085 0.5569 -0.2466 110.77 110.77
38 2.3668 2.492 -1.0122 -0.1892 0.4918 0.7273 110.77 111.27
39 2.3668 2.492 -1.0122 -0.1892 0.4918 0.7273 110.77 111.27
40 2.3668 2.492 -1.0122 -0.1892 0.4918 0.7273 110.77 111.27
41 -0.8085 0.5569 -0.2466 -0.8085 0.5569 -0.2466 110.77 110.77
42 2.3668 2.492 -1.0122 -0.1892 0.4918 0.7273 110.77 111.27
43 2.3668 2.492 -1.0122 -0.1892 0.4918 0.7273 110.77 111.27
44 0.5511 0.9737 -0.6673 0.5511 0.9737 -0.6673 111.27 111.27
45 0.5511 0.9737 -0.6673 0.5511 0.9737 -0.6673 111.27 111.27
46 0.5511 0.9737 -0.6673 0.5511 0.9737 -0.6673 111.27 111.27

Improper Coeffs # class2

1 0 0
2 0 0
3 0 0
4 0 0
5 0 0
6 0 0
7 0 0
8 0 0
9 0 0
10 0 0
11 0 0
12 0 0
13 0 0
14 0 0
15 0 0
16 0 0
17 0 0
18 0 0
19 0 0
20 0 0
21 0 0
22 0 0
23 0 0
24 0 0
25 0 0
26 0 0
27 0 0
28 0 0
29 0 0

AngleAngle Coeffs

1 0 0 0.1184 112.67 110.77 110.77
2 0 -0.4825 0 110.77 110.77 107.66
3 3.9177 2.5926 0 110.77 111.27 108.728
4 0 2.5926 3.9177 111.27 110.77 108.728
5 -1.3199 -1.3199 0.1184 112.67 110.77 110.77
6 0.2738 -0.4825 0.2738 110.77 110.77 107.66
7 3.9177 2.5926 0.1689 110.77 111.27 108.728
8 3.9177 2.5926 0.1689 110.77 111.27 108.728
9 0.1689 2.5926 3.9177 111.27 110.77 108.728
10 0 -0.4825 0 110.77 110.77 107.66
11 3.9177 2.5926 0 110.77 111.27 108.728
12 0 2.5926 0 110.77 111.27 108.728
13 0 2.5926 3.9177 111.27 110.77 108.728
14 2.4259 2.4259 2.1283 107.66 108.728 108.728
15 2.4259 2.4259 2.1283 107.66 108.728 108.728
16 2.4259 2.4259 2.1283 107.66 108.728 108.728
17 -0.1729 -0.1729 -0.1729 112.67 112.67 112.67
18 0 0 -0.1729 112.67 112.67 112.67
19 0 0 0.1184 112.67 110.77 110.77
20 -0.833 -0.833 -3.5744 112.67 111.27 111.27
21 0 -0.1729 0 112.67 112.67 112.67
22 0 -1.3199 0 112.67 110.77 110.77
23 0 -1.3199 0 110.77 112.67 110.77
24 0 2.5926 3.9177 111.27 110.77 108.728
25 -1.3199 -1.3199 0.1184 112.67 110.77 110.77
26 0 0 0.1184 112.67 110.77 110.77
27 -0.833 -0.833 -3.5744 112.67 111.27 111.27
28 3.9177 2.5926 0 110.77 111.27 108.728
29 0 2.5926 3.9177 111.27 110.77 108.728

Atoms # full

3875 1 1 0.027 9.360983936244512 7.908042744661508 13.493547844004818 5 0 0
3873 1 5 0.053 7.298714910283429 5.665160775921738 13.93961252475753 5 0 0
3878 1 7 -0.266 9.809700247443514 7.058599965560353 12.513401262392073 5 0 0
3882 1 2 0.08 9.927439962903208 6.1403711461697235 10.373154042342033 5 0 0
3879 1 1 0.027 9.080962535175477 6.097795870498531 11.64522461820037 5 0 0
749 1 5 0.053 23.55788949599574 5.4974848666575395 13.84680978546891 4 0 0
3887 1 5 0.053 11.249661391480734 7.8717623727665025 10.501044131518126 5 0 0
3885 1 1 0.027 10.459729207573123 7.463255302633338 9.819622614357684 5 0 0
3880 1 5 0.053 8.02669010141664 6.392349924070698 11.51567793085087 5 0 0
3886 1 5 0.053 11.097580027769203 7.366160758314815 8.923143666504663 5 0 0
3884 1 7 -0.266 9.35684825044412 8.274339088460279 9.69450165086225 5 0 0
593 1 5 0.053 9.628265524604178 11.995571115569085 6.508147533815655 4 0 0
3874 1 5 0.053 6.611085795776515 7.10331998187419 13.965999083567839 5 0 0
3876 1 5 0.053 10.287828286151651 8.369185578386684 13.86172806963667 5 0 0
1278 1 7 -0.266 7.838216920893839 10.098407243429039 7.326814444502411 5 0 -1
2127 1 5 0.053 16.86276503939763 10.168680440909526 14.260261249898619 4 0 0
2279 1 1 0.027 6.127654081765563 11.137118798307696 12.241227237257622 5 0 0
2281 1 5 0.053 6.771711032650092 11.28320907818761 11.39199352754283 5 0 0
1280 1 5 0.053 7.583927736628485 10.184353001123611 9.382562044258844 5 0 -1
1282 1 2 0.08 9.640880641290032 9.437254447913 8.965172552360002 5 0 -1
583 1 5 0.053 9.885144623266637 9.165727092832203 7.9241988611192244 4 0 0
4198 1 5 0.053 16.806550556508878 17.470273380650223 5.960145051976406 4 -1 0
4163 1 5 0.053 22.569669834087495 17.800196850588748 8.034641534727422 4 -1 0
1279 1 1 0.027 8.392627436420543 10.347548743879571 8.597065916707363 5 0 -1
2298 1 5 0.053 9.884996355818748 5.535380054998501 7.688569408875866 5 0 0
1275 1 1 0.027 6.787431483244991 11.098966092755152 7.197935039229456 5 0 -1
3877 1 5 0.053 8.789683638011793 8.692475681671894 13.070847094100916 5 0 0
3872 1 1 -0.106 7.348164374477182 6.574363404981264 14.641307804506432 5 0 0
1285 1 1 0.027 10.786939642543333 10.403277342542694 9.332584149444216 5 0 -1
1281 1 5 0.053 8.697170337900136 11.338689350770839 8.572713865695192 5 0 -1
3018 1 5 0.053 23.70856836633412 15.62947344191728 12.514212802431382 4 0 0
2280 1 5 0.053 6.75264141598893 10.921842895859893 13.07396444233923 5 0 0
2293 1 5 0.053 6.924799580703084 6.363491430847342 6.901577012490474 5 0 0
1286 1 5 0.053 11.791657848921735 9.894745875935268 9.214850312981351 5 0 -1
1277 1 5 0.053 6.0453692271148025 10.971829686513122 8.105870739745793 5 0 -1
2294 1 5 0.053 7.13316164218492 6.444646496263152 8.49776481197155 5 0 0
1284 1 7 -0.266 10.645121237701492 10.744516837858175 10.717985147581732 5 0 -1
2292 1 1 0.027 6.850917814632243 5.758908554021477 7.777016493467391 5 0 0
1276 1 5 0.053 7.3192208680508966 12.063509356799127 7.285977116962695 5 0 -1
3293 1 5 0.053 23.96214231802101 12.5938916975107 5.695208350618558 4 0 0
3040 1 5 0.053 23.2020160599919 12.59455530653872 12.684543897290633 4 0 0
591 1 7 -0.266 11.591077327335388 11.722663085665161 6.105807094329278 4 0 0
4162 1 2 -0.053 21.637622984871626 17.450440005299292 8.455234070717136 4 -1 0
2277 1 5 0.053 5.7609964482535885 8.395815837653634 12.822558139161409 5 0 0
747 1 1 0.027 24.15933871110498 5.600248859029396 14.675362270742337 4 0 0
2121 1 5 0.053 19.23722145383286 11.618299571077582 14.719420732951946 4 0 0
4213 1 5 0.053 16.94058627133063 6.836782689436248 8.846233855127391 4 0 0
4211 1 5 0.053 16.326167048788264 7.92451880895108 6.867936312110593 4 0 0
554 1 5 0.053 14.412993807578433 11.182382155825238 6.676729319745686 4 0 0
4223 1 5 0.053 12.142601303985192 7.536831394350296 6.9001888843725006 4 0 0
4222 1 1 -0.106 13.06566904915118 8.072032792249463 6.671315888476748 4 0 0
4207 1 5 0.053 13.231964546056584 8.27376030761809 9.686466964315418 4 0 0
4206 1 2 -0.053 13.849981150626517 7.586915337284884 9.156719218893427 4 0 0
4208 1 2 -0.053 14.106228231293379 8.085769598818038 7.742647876443581 4 0 0
4210 1 2 -0.053 15.434170027471293 7.358838024053731 7.357401476010011 4 0 0
4214 1 1 -0.106 15.192627297458015 7.95395341534296 9.716806974417953 4 0 0
4209 1 5 0.053 14.359002845842237 9.13482020801754 7.923413431844367 4 0 0
4203 1 1 -0.106 13.802279541739459 6.080851290384888 9.51588338500795 4 0 0
577 1 5 0.053 15.76396769946217 11.343046163694293 11.206293374100934 4 0 0
4224 1 5 0.053 12.771399618509012 9.069590623336932 6.353630177833519 4 0 0
573 1 5 0.053 16.16966821621954 11.198593061146855 8.550189750190125 4 0 0
2123 1 5 0.053 18.130359626928726 11.579190738442168 12.62331673771117 4 0 0
4215 1 5 0.053 15.371253811193139 7.861390724854231 10.825672556759121 4 0 0
4212 1 2 -0.053 15.843735306453262 6.89103173963466 8.768947059414758 4 0 0
4216 1 5 0.053 15.386486899048066 8.963971215047152 9.472559237566948 4 0 0
2108 1 2 -0.053 18.323527290881557 13.573365216138571 13.065869053764901 4 0 0
4217 1 1 -0.106 14.894186110267873 6.396503644530169 6.301276398871588 4 0 0
575 1 1 0.027 14.71112579117233 11.657959588765653 10.944087939277058 4 0 0
566 1 5 0.053 16.06430668768906 15.100655472574324 6.14851211620426 4 0 0
2102 1 5 0.053 15.781829457195414 16.601927480013167 13.848813185500738 4 0 0
2138 1 1 0.027 15.028271446998128 14.7982755480529 14.58221125954354 4 0 0
4202 1 5 0.053 15.785096103978093 5.730596141363416 10.394195328596226 4 0 0
4151 1 2 -0.053 20.829747880144907 16.5996062814961 7.418634607683089 4 -1 0
1270 1 2 -0.053 5.904203060365488 10.809063506557042 5.942960887261795 5 0 -1
4201 1 2 -0.053 15.242429035114657 5.653769564619664 9.408332966888837 4 0 0
2107 1 5 0.053 18.057132321745996 14.594680909121484 11.083404022168892 4 0 0
580 1 5 0.053 12.526625680301297 9.892093583307059 12.56073991452482 4 0 0
579 1 1 0.027 12.806166206105294 10.860017247044045 12.044431087781255 4 0 0
2122 1 1 -0.106 17.687974527217463 12.256056775183431 13.383577181376374 4 0 0
581 1 5 0.053 13.246137451151839 11.388957621041525 12.83481028441187 4 0 0
4204 1 5 0.053 13.518024870901137 6.033032269408884 10.555562364404283 4 0 0
2112 1 2 -0.053 17.636450076935393 15.567000849516424 14.32155457542657 4 0 0
5009 1 5 0.053 20.451160925086644 7.792233656369405 14.32574644434228 4 0 0
2116 1 5 0.053 19.37448631990655 16.02393936464076 13.123200794239153 4 0 0
5002 1 1 0.027 18.658206510888398 5.683587230673985 12.304649158468205 4 0 0
2109 1 5 0.053 19.280199665220266 13.338874947328517 12.869165862192233 4 0 0
2987 1 5 0.053 11.997645997420435 17.758132662308377 5.757188486329346 4 -1 0
5005 1 1 -0.106 19.87370172336602 6.258844933012872 12.94851556550741 4 0 0
5007 1 1 0.027 19.718900794082003 7.63391356049748 13.607992455203153 4 0 0
5010 1 7 -0.266 19.824999706460744 8.664900244289925 12.553160581562242 4 0 0
3990 1 5 0.053 20.43668360791931 6.171987408116687 7.5405181204762055 4 0 0
3993 1 5 0.053 20.402844530256665 9.052843251730913 7.981723741434751 4 0 0
3994 1 5 0.053 20.67339694523004 8.140751834878994 9.320218835042773 4 0 0
3992 1 1 0.027 21.25903159868843 8.577389753249697 8.47598603131308 4 0 0
3996 1 5 0.053 21.77241208726465 8.513945872263996 11.830918789607672 4 0 0
3045 1 2 0.08 21.085617587454543 9.285839001544405 12.178941232852367 4 0 0
3296 1 5 0.053 22.912030456552397 9.02640126829278 9.91369819223322 4 0 0
3042 1 1 0.027 21.93988106188125 10.259769617372443 13.192684286851796 4 0 0
3995 1 2 0.08 22.18675271070321 9.50103788302756 9.258820066846205 4 0 0
3044 1 5 0.053 22.313160684548446 9.815217731702381 14.143705038846283 4 0 0
3991 1 7 -0.266 21.927352573381707 7.544459353592362 7.803649979844808 4 0 0
3997 1 1 0.027 23.153196372923155 10.249956364479546 8.331320451456309 4 0 0
3988 1 1 0.027 21.156317347521053 6.655240532978315 6.869869510669961 4 0 0
3050 1 7 -0.266 21.623928627306718 10.548655889749032 9.975337716159235 4 0 0
3048 1 5 0.053 19.931437806585976 9.682399713923218 10.3562321747061 4 0 0
3047 1 1 0.027 20.626697992540024 10.250339422100499 10.919382641130946 4 0 0
3041 1 7 -0.266 23.096224175895884 10.559163252563643 12.524510788203596 4 0 0
3049 1 5 0.053 20.206439584496955 11.22380851415387 11.238664541737418 4 0 0
3989 1 5 0.053 21.881118747630968 5.767277939363412 6.496424802682569 4 0 0
3955 1 5 0.053 18.74024808974854 6.851482781451661 6.573002103641568 4 0 0
4000 1 7 -0.266 22.450888721164485 10.863193667577882 7.252264117625851 4 0 0
5003 1 5 0.053 18.077205616418592 6.38580978108669 11.685414532230702 4 0 0
3481 1 5 0.053 23.860137484887478 5.730636329913911 11.668615202619963 4 0 0
4750 1 1 0.027 7.5240632168731825 16.004113616785844 5.730519306072064 4 -1 0
5006 1 5 0.053 20.749599049839915 6.292450943703746 12.40163863848733 4 0 0
4190 1 5 0.053 21.423006031439314 17.352997657475587 5.447919594319464 4 -1 0
3954 1 5 0.053 18.8892643407666 8.559869100777522 5.9934539934596724 4 0 0
3951 1 2 -0.053 20.652171094720305 7.364528700773446 5.635190239033699 4 0 0
3998 1 5 0.053 23.857930900093145 10.851314442644345 8.908665679122695 4 0 0
3953 1 1 -0.106 19.18257490200572 7.492163411293115 5.736892198464989 4 0 0
3952 1 5 0.053 21.06343437496116 8.373099649277504 5.56082103047082 4 0 0
4152 1 5 0.053 21.457985233061745 15.681705775680863 7.100477995138089 4 -1 0
3046 1 5 0.053 20.055845714547516 5.636332136432572 13.752779910184849 4 0 0
1287 1 5 0.053 10.7318069543463 11.360814552600171 8.624471467304417 5 0 -1
4740 1 5 0.053 6.627132300760613 16.184430856636475 9.529345000124907 4 -1 0
586 1 5 0.053 10.009135879155695 11.372300848434648 13.260707376119786 4 0 0
3557 1 5 0.053 6.383746579525929 17.48285222510001 13.64880858018826 5 -1 -1
4734 1 2 -0.053 9.50297534526332 17.36666435438554 8.184888477356118 4 -1 0
4748 1 2 -0.053 7.426062062797104 16.03279781294131 7.2385957158018535 4 -1 0
2145 1 2 0.08 11.230949346167295 14.05399876279045 14.291604040741008 4 0 0
4744 1 5 0.053 8.630827515099751 14.671402327471132 10.175582968467928 4 -1 0
2149 1 5 0.053 9.591553541068194 15.05853410272073 13.59143020182985 4 0 0
4743 1 2 -0.053 8.593464608243163 15.418804591799322 9.330104479332261 4 -1 0
4745 1 1 -0.106 8.15149198789097 14.770918655209648 7.979677454974169 4 -1 0
4746 1 5 0.053 8.943232768003346 14.223683706306806 7.468109002408813 4 -1 0
585 1 1 0.027 10.439753299342303 12.128042440048793 12.559909769557006 4 0 0
587 1 5 0.053 9.60298064740137 12.691741028253306 12.070602695679423 4 0 0
4741 1 2 -0.053 9.934768373871538 16.150963385655373 9.14336236184494 4 -1 0
4742 1 5 0.053 10.678422101821297 15.495559825928419 8.604341248351094 4 -1 0
584 1 7 -0.266 11.229309246969422 13.069360476516175 13.26637253487246 4 0 0
2147 1 1 0.027 10.546775571797843 15.440001846456289 13.917509726526157 4 0 0
4747 1 5 0.053 7.36834799984058 14.026169316970295 8.075486691799984 4 -1 0
582 1 2 0.08 11.492148154427706 11.554408798865806 11.5227382552834 4 0 0
2146 1 5 0.053 11.846261440350691 12.437758071310242 11.086368843708932 4 0 0
2284 1 6 -0.266 5.972872737669058 13.623852596488277 12.116917079786973 5 0 0
4749 1 5 0.053 6.379333596922995 16.067382518232474 7.442104614880732 4 -1 0
4736 1 2 -0.053 7.908226518283232 17.220327063753444 8.042662303552705 4 -1 0
4738 1 1 -0.106 7.654334204425069 16.628624170098504 9.349818703952941 4 -1 0
3556 1 2 -0.053 5.722016606953768 17.403355737180995 14.528268539193848 5 -1 -1
2140 1 5 0.053 15.09404506032694 13.744595197710819 14.693944283086152 4 0 0
4730 1 5 0.053 10.09772256711752 17.22677657229676 11.092723288744697 4 -1 0
4728 1 1 -0.106 10.78433944365094 16.90103532139019 10.302185436040201 4 -1 0
4729 1 5 0.053 11.580499942359525 16.221109246840754 10.415107771095407 4 -1 0
3291 1 7 -0.266 23.855371305778814 14.348265750190121 6.696085074340431 4 0 0
4739 1 5 0.053 7.700881105349513 17.315060952217372 10.322745661808021 4 -1 0
3043 1 5 0.053 21.436477460911092 11.207123834806488 13.379132279365576 4 0 0
4735 1 5 0.053 9.993922334860873 17.152819055268708 7.146509401568539 4 -1 0
2246 1 5 0.053 22.131281958121715 12.576802397319707 8.102724495429005 4 0 0
4156 1 2 -0.053 20.20971088744288 16.52029693696864 9.734708454600774 4 -1 0
592 1 1 0.027 10.301591989906978 12.03159256649869 5.623587550495683 4 0 0
2114 1 1 -0.106 18.21120757991622 16.02390810145829 12.971887811988655 4 0 0
4166 1 5 0.053 22.23669235115327 16.959392829552165 10.62124933633173 4 -1 0
4155 1 5 0.053 19.6000629798125 15.01925644851481 8.276863375496193 4 -1 0
4164 1 1 -0.106 21.818195272540144 16.49164977122397 9.661840834237935 4 -1 0
553 1 1 -0.106 14.61565150521252 11.979168952447301 6.028697340416931 4 0 0
571 1 5 0.053 14.104062882776896 11.617913692918675 8.873972569238717 4 0 0
3299 1 5 0.053 20.38134368518848 11.827097941899495 6.5833462787262 4 0 0
590 1 5 0.053 11.591668191459252 13.690706568079401 6.8433201818406015 4 0 0
589 1 5 0.053 12.328285204600347 12.633517870149948 7.891429861974845 4 0 0
2148 1 5 0.053 11.08693267441586 15.932526657557004 13.12083859905431 4 0 0
2124 1 5 0.053 16.572471592393345 12.309967061231932 13.34170190820175 4 0 0
578 1 7 -0.266 13.752719093859268 10.503910522733207 11.012163794136963 4 0 0
572 1 1 -0.106 16.06097508053977 12.235550579476183 8.957405917779758 4 0 0
563 1 5 0.053 13.697795120030273 15.314420820984001 6.737951167702297 4 0 0
588 1 1 0.027 12.238968605887312 12.744000519109562 6.849530067489477 4 0 0
551 1 2 -0.053 13.543962334082327 13.104837672190918 6.102740329443609 4 0 0
576 1 5 0.053 14.432413962619606 12.365118543601252 11.72094835544756 4 0 0
574 1 5 0.053 16.76854744422142 12.384835482522327 9.870331004519217 4 0 0
570 1 2 -0.053 14.700432478813976 12.275933567522124 9.630350551902463 4 0 0
3039 1 5 0.053 23.997129913177904 11.866763247476825 13.998793739625363 4 0 0
562 1 2 -0.053 14.208091556846016 14.293930343484721 6.749324665326868 4 0 0
569 1 5 0.053 14.566507099446744 14.336077333356716 10.1615926156277 4 0 0
2105 1 5 0.053 15.777893415837116 15.695818358478393 11.452370682940913 4 0 0
2103 1 1 -0.106 16.188419581371434 15.101788797180665 12.307583969450132 4 0 0
568 1 5 0.053 12.875748355238276 13.85944625540774 9.511229842640171 4 0 0
567 1 1 -0.106 14.00008878618915 13.676184064592684 9.399776060446023 4 0 0
2104 1 5 0.053 15.523468318238926 14.176911654065167 12.036093164866593 4 0 0
560 1 2 -0.053 14.74195572035327 14.183427105800876 8.238295746944942 4 0 0
561 1 5 0.053 15.169644493397367 15.186462339775911 8.41677944015727 4 0 0
558 1 2 -0.053 15.924944391030579 13.220375749693929 7.889106926483484 4 0 0
556 1 2 -0.053 15.799936543916075 12.839639166576477 6.461856292481675 4 0 0
4157 1 5 0.053 19.78934349479035 15.856976341373013 10.515619976434955 4 -1 0
2106 1 2 -0.053 17.69200396535068 14.874840726446607 12.155023382280508 4 0 0
2115 1 5 0.053 17.836415060752046 17.075958901813003 12.92050878348572 4 0 0
4219 1 5 0.053 15.700993334693703 6.086451808485818 5.6919961353901245 4 0 0
4153 1 1 -0.106 19.716575976278662 16.130091617083718 8.330390346484212 4 -1 0
564 1 1 -0.106 15.465632741265194 14.305949967934135 5.975735255659113 4 0 0
3298 1 5 0.053 20.562254035022136 13.521355444169016 6.099658632099668 4 0 0
559 1 5 0.053 16.856965772265983 13.84359020420097 7.943868737185875 4 0 0
3292 1 1 0.027 23.763727016906802 12.8484711820638 6.756489988795226 4 0 0