LAMMPS output created by EMC v9.4.4, build Jul 27 2022 18:02:20

          22  atoms
          21  bonds
          38  angles
          45  dihedrals
          24  impropers

           6  atom types
           7  bond types
          12  angle types
          13  dihedral types
           9  improper types

             0     26.9729027  xlo xhi
             0     26.9729027  ylo yhi
             0     26.9729027  zlo zhi

Masses

       1   12.01115  # c
       2   12.01115  # c1
       3    1.00797  # h
       4    1.00797  # hc
       5   15.99940  # oc
       6   15.99940  # oh

Atoms

       1       1   1 -0.1590  22.0623126056   9.8455293804  20.2549975728  # c
       2       1   4  0.0530  21.7183114940   8.9563895388  19.7426932727  # hc
       3       1   4  0.0530  23.0860673715  10.2101559450  19.8818820135  # hc
       4       1   4  0.0530  22.0541506949   9.6471687806  21.2966292003  # hc
       5       1   2  0.0800  21.1224605351  10.9997456695  20.0342276248  # c1
       6       1   4  0.0530  20.9050080332  11.1598771921  18.9996218986  # hc
       7       1   6 -0.5571  19.7576959272  10.6433793485  20.4894967416  # oh
       8       1   3  0.4241  19.0645657177  11.0802562718  20.0398734337  # h
       9       1   1  0.0270  21.6696143924  12.3127142113  20.7398118816  # c
      10       1   4  0.0530  21.4214657131  12.3360054451  21.8670770388  # hc
      11       1   4  0.0530  21.2817796394  13.2042805058  20.2404406233  # hc
      12       1   5 -0.2660  23.1244699686  12.2614395133  20.7186539814  # oc
      13       1   2  0.0800  23.9863980694  13.3918585627  21.0462937848  # c1
      14       1   4  0.0530  24.0272949468  14.1142413388  20.1287417438  # hc
      15       1   1 -0.1590  23.6055902719  14.2355728347  22.2581176918  # c
      16       1   4  0.0530  23.5908629338  13.6228545809  23.1776123362  # hc
      17       1   4  0.0530  24.3610614703  15.1031958782  22.3310624313  # hc
      18       1   4  0.0530  22.6182757416  14.6812463734  22.1889190963  # hc
      19       1   1 -0.1590  25.4396537963  12.8890465986  21.2715653797  # c
      20       1   4  0.0530  25.5356018185  12.2353074121  22.1391927311  # hc
      21       1   4  0.0530  26.2003676868  13.7647424936  21.3155235251  # hc
      22       1   4  0.0530  25.7195638804  12.2392326935  20.4191722277  # hc

Bonds

       1       1       1       5  # c,c1
       2       2       1       2  # c,hc
       3       2       1       3  # c,hc
       4       2       1       4  # c,hc
       5       1       9       5  # c,c1
       6       4       5       6  # c1,hc
       7       6       5       7  # c1,oh
       8       7       8       7  # h,oh
       9       3       9      12  # c,oc
      10       2       9      10  # c,hc
      11       2       9      11  # c,hc
      12       5      13      12  # c1,oc
      13       1      19      13  # c,c1
      14       1      15      13  # c,c1
      15       4      13      14  # c1,hc
      16       2      15      16  # c,hc
      17       2      15      17  # c,hc
      18       2      15      18  # c,hc
      19       2      19      20  # c,hc
      20       2      19      21  # c,hc
      21       2      19      22  # c,hc

Angles

       1       1       1       5       9  # c,c1,c
       2       2       1       5       6  # c,c1,hc
       3       4       1       5       7  # c,c1,oh
       4       6       5       1       2  # c1,c,hc
       5       9       2       1       3  # hc,c,hc
       6       9       2       1       4  # hc,c,hc
       7       6       5       1       3  # c1,c,hc
       8       9       3       1       4  # hc,c,hc
       9       6       5       1       4  # c1,c,hc
      10       7       5       9      12  # c1,c,oc
      11       6       5       9      10  # c1,c,hc
      12       6       5       9      11  # c1,c,hc
      13       8       5       7       8  # c1,oh,h
      14       2       9       5       6  # c,c1,hc
      15      12       6       5       7  # hc,c1,oh
      16       4       9       5       7  # c,c1,oh
      17       5       9      12      13  # c,oc,c1
      18      10      10       9      12  # hc,c,oc
      19       9      10       9      11  # hc,c,hc
      20      10      11       9      12  # hc,c,oc
      21       3      19      13      12  # c,c1,oc
      22       3      15      13      12  # c,c1,oc
      23      11      14      13      12  # hc,c1,oc
      24       6      13      19      20  # c1,c,hc
      25       6      13      19      21  # c1,c,hc
      26       6      13      19      22  # c1,c,hc
      27       6      13      15      16  # c1,c,hc
      28       6      13      15      17  # c1,c,hc
      29       6      13      15      18  # c1,c,hc
      30       2      19      13      14  # c,c1,hc
      31       2      15      13      14  # c,c1,hc
      32       1      15      13      19  # c,c1,c
      33       9      16      15      17  # hc,c,hc
      34       9      16      15      18  # hc,c,hc
      35       9      17      15      18  # hc,c,hc
      36       9      20      19      21  # hc,c,hc
      37       9      20      19      22  # hc,c,hc
      38       9      21      19      22  # hc,c,hc

Dihedrals

       1       2       1       5       9      12  # c,c1,c,oc
       2       1       1       5       9      10  # c,c1,c,hc
       3       1       1       5       9      11  # c,c1,c,hc
       4       4       1       5       7       8  # c,c1,oh,h
       5       1       9       5       1       2  # c,c1,c,hc
       6       9       2       1       5       6  # hc,c,c1,hc
       7      11       2       1       5       7  # hc,c,c1,oh
       8       1       9       5       1       3  # c,c1,c,hc
       9       9       3       1       5       6  # hc,c,c1,hc
      10      11       3       1       5       7  # hc,c,c1,oh
      11       1       9       5       1       4  # c,c1,c,hc
      12       9       4       1       5       6  # hc,c,c1,hc
      13      11       4       1       5       7  # hc,c,c1,oh
      14       6       5       9      12      13  # c1,c,oc,c1
      15      12       6       5       9      12  # hc,c1,c,oc
      16       9      10       9       5       6  # hc,c,c1,hc
      17       9      11       9       5       6  # hc,c,c1,hc
      18       8       8       7       5       6  # h,oh,c1,hc
      19      13      12       9       5       7  # oc,c,c1,oh
      20      11      10       9       5       7  # hc,c,c1,oh
      21      11      11       9       5       7  # hc,c,c1,oh
      22       4       9       5       7       8  # c,c1,oh,h
      23       3      19      13      12       9  # c,c1,oc,c
      24       3      15      13      12       9  # c,c1,oc,c
      25       5       9      12      13      14  # c,oc,c1,hc
      26       7      13      12       9      10  # c1,oc,c,hc
      27       7      13      12       9      11  # c1,oc,c,hc
      28      10      20      19      13      12  # hc,c,c1,oc
      29      10      21      19      13      12  # hc,c,c1,oc
      30      10      22      19      13      12  # hc,c,c1,oc
      31      10      16      15      13      12  # hc,c,c1,oc
      32      10      17      15      13      12  # hc,c,c1,oc
      33      10      18      15      13      12  # hc,c,c1,oc
      34       9      20      19      13      14  # hc,c,c1,hc
      35       9      21      19      13      14  # hc,c,c1,hc
      36       9      22      19      13      14  # hc,c,c1,hc
      37       9      16      15      13      14  # hc,c,c1,hc
      38       9      17      15      13      14  # hc,c,c1,hc
      39       9      18      15      13      14  # hc,c,c1,hc
      40       1      15      13      19      20  # c,c1,c,hc
      41       1      15      13      19      21  # c,c1,c,hc
      42       1      15      13      19      22  # c,c1,c,hc
      43       1      19      13      15      16  # c,c1,c,hc
      44       1      19      13      15      17  # c,c1,c,hc
      45       1      19      13      15      18  # c,c1,c,hc

Impropers

       1       1       5       1       2       3  # c1,c,hc,hc
       2       1       5       1       2       4  # c1,c,hc,hc
       3       1       5       1       3       4  # c1,c,hc,hc
       4       3       2       1       3       4  # hc,c,hc,hc
       5       5       1       5       9       6  # c,c1,c,hc
       6       7       1       5       9       7  # c,c1,c,oh
       7       9       1       5       6       7  # c,c1,hc,oh
       8       9       9       5       6       7  # c,c1,hc,oh
       9       2       5       9      12      10  # c1,c,oc,hc
      10       2       5       9      12      11  # c1,c,oc,hc
      11       1       5       9      10      11  # c1,c,hc,hc
      12       4      10       9      11      12  # hc,c,hc,oc
      13       6      19      13      15      12  # c,c1,c,oc
      14       8      19      13      14      12  # c,c1,hc,oc
      15       8      15      13      14      12  # c,c1,hc,oc
      16       5      19      13      15      14  # c,c1,c,hc
      17       1      13      15      16      17  # c1,c,hc,hc
      18       1      13      15      16      18  # c1,c,hc,hc
      19       1      13      15      17      18  # c1,c,hc,hc
      20       3      16      15      17      18  # hc,c,hc,hc
      21       1      13      19      20      21  # c1,c,hc,hc
      22       1      13      19      20      22  # c1,c,hc,hc
      23       1      13      19      21      22  # c1,c,hc,hc
      24       3      20      19      21      22  # hc,c,hc,hc

