LAMMPS (22 Dec 2022)
WARNING: Using I/O redirection is unreliable with parallel runs. Better to use the -in switch to read input files. (../lammps.cpp:531)
# PREREQUISITES:
#
#     You must use moltemplate.sh to create 3 files:
#        system.data  system.in.init  system.in.settings
#     (Follow the instructions in README_setup.sh,
#      or run the file as a script using ./README_setup.sh)

# ------------------------------- Initialization Section --------------------

units real
atom_style full
boundary p p p

pair_style lj/class2/coul/cut 10.0
bond_style class2
angle_style class2
dihedral_style class2
improper_style class2


# ------------------------------- Atom Definition Section -------------------

read_data       "pack_mol.data" extra/bond/per/atom 1 extra/angle/per/atom 12 extra/dihedral/per/atom 12 extra/improper/per/atom 12 extra/special/per/atom 12
Reading data file ...
  orthogonal box = (0 0 0) to (42.862121 42.862121 42.862121)
  2 by 1 by 3 MPI processor grid
  reading atoms ...
  2996 atoms
  scanning bonds ...
  5 = max bonds/atom
  scanning angles ...
  18 = max angles/atom
  scanning dihedrals ...
  26 = max dihedrals/atom
  scanning impropers ...
  16 = max impropers/atom
  reading bonds ...
  3131 bonds
  reading angles ...
  5396 angles
  reading dihedrals ...
  7121 dihedrals
  reading impropers ...
  2556 impropers
Finding 1-2 1-3 1-4 neighbors ...
  special bond factors lj:    0        0        0       
  special bond factors coul:  0        0        0       
     4 = max # of 1-2 neighbors
     7 = max # of 1-3 neighbors
    15 = max # of 1-4 neighbors
    29 = max # of special neighbors
  special bonds CPU = 0.066 seconds
  read_data CPU = 0.321 seconds

include calc.pram

# Masses

mass		1    12.01115  # c
mass		2    12.01115  # c1
mass		3    12.01115  # c3h
mass		4    12.01115  # cp
mass		5     1.00797  # h
mass		6     1.00797  # hc
mass		7    15.99940  # o3e
mass		8    15.99940  # oc
mass		9    15.99940  # oh

# Potentials

pair_coeff	 1  1    0.05400    4.01000  # c,c
pair_coeff	 2  2    0.05400    4.01000  # c1,c1
pair_coeff	 3  3    0.05400    4.01000  # c3h,c3h
pair_coeff	 4  4    0.06400    4.01000  # cp,cp
pair_coeff	 5  5    0.02000    2.99500  # h,h
pair_coeff	 6  6    0.02000    2.99500  # hc,hc
pair_coeff	 7  7    0.24000    3.53500  # o3e,o3e
pair_coeff	 8  8    0.24000    3.53500  # oc,oc
pair_coeff	 9  9    0.24000    3.53500  # oh,oh

# Bond Coeffs

bond_coeff	 1    1.53000  299.67000 -501.77000  679.81000  # c,c
bond_coeff	 2    1.53000  299.67000 -501.77000  679.81000  # c,c1
bond_coeff	 3    1.53000  299.67000 -501.77000  679.81000  # c,c3h
bond_coeff	 4    1.10100  345.00000 -691.89000  844.60000  # c,hc
bond_coeff	 5    1.42000  400.39540 -835.19510 1313.01420  # c,o3e
bond_coeff	 6    1.42000  400.39540 -835.19510 1313.01420  # c,oc
bond_coeff	 7    1.42000  400.39540 -835.19510 1313.01420  # c,oh
bond_coeff	 8    1.10100  345.00000 -691.89000  844.60000  # c1,hc
bond_coeff	 9    1.42000  400.39540 -835.19510 1313.01420  # c1,oc
bond_coeff	10    1.10100  345.00000 -691.89000  844.60000  # c3h,hc
bond_coeff	11    1.42000  400.39540 -835.19510 1313.01420  # c3h,o3e
bond_coeff	12    1.41700  470.83610 -627.61790 1327.63450  # cp,cp
bond_coeff	13    1.09820  372.82510 -803.45260  894.31730  # cp,hc
bond_coeff	14    1.37680  428.87980 -738.23510 1114.96550  # cp,oc
bond_coeff	15    0.96000  493.84800    0.00000    0.00000  # h,oh

# Angle Coeffs

angle_coeff	 1  112.67000   39.51600   -7.44300   -9.55830  # c,c,c
angle_coeff	 2  110.77000   41.45300  -10.60400    5.12900  # c,c,hc
angle_coeff	 3  111.27000   54.53810   -8.36420  -13.08380  # c,c,oc
angle_coeff	 4  112.67000   39.51600   -7.44300   -9.55830  # c,c1,c
angle_coeff	 5  110.77000   41.45300  -10.60400    5.12900  # c,c1,hc
angle_coeff	 6  111.27000   54.53810   -8.36420  -13.08380  # c,c1,oc
angle_coeff	 7  112.67000   39.51600   -7.44300   -9.55830  # c,c3h,c
angle_coeff	 8  110.77000   41.45300  -10.60400    5.12900  # c,c3h,hc
angle_coeff	 9  111.27000   54.53810   -8.36420  -13.08380  # c,c3h,o3e
angle_coeff	10  104.50000   35.74540  -10.00670   -6.27290  # c,o3e,c3h
angle_coeff	11  104.50000   35.74540  -10.00670   -6.27290  # c,oc,c1
angle_coeff	12  102.96950   38.97390   -6.25950   -8.17100  # c,oc,cp
angle_coeff	13  109.00000   58.50000    0.00000    0.00000  # c,oh,h
angle_coeff	14  110.77000   41.45300  -10.60400    5.12900  # c1,c,hc
angle_coeff	15  111.27000   54.53810   -8.36420  -13.08380  # c1,c,oc
angle_coeff	16  111.27000   54.53810   -8.36420  -13.08380  # c1,c,oh
angle_coeff	17  110.77000   41.45300  -10.60400    5.12900  # c3h,c,hc
angle_coeff	18  111.27000   54.53810   -8.36420  -13.08380  # c3h,c,o3e
angle_coeff	19  111.27000   54.53810   -8.36420  -13.08380  # c3h,c,oc
angle_coeff	20  118.90000   61.02260  -34.99310    0.00000  # cp,cp,cp
angle_coeff	21  117.94000   35.15580  -12.46820    0.00000  # cp,cp,hc
angle_coeff	22  123.42000   73.67810  -21.67870    0.00000  # cp,cp,oc
angle_coeff	23  107.66000   39.64100  -12.92100   -2.43180  # hc,c,hc
angle_coeff	24  108.72800   58.54460  -10.80880  -12.40060  # hc,c,o3e
angle_coeff	25  108.72800   58.54460  -10.80880  -12.40060  # hc,c,oc
angle_coeff	26  108.72800   58.54460  -10.80880  -12.40060  # hc,c,oh
angle_coeff	27  108.72800   58.54460  -10.80880  -12.40060  # hc,c1,oc
angle_coeff	28  108.72800   58.54460  -10.80880  -12.40060  # hc,c3h,o3e

# BondBond Coeffs

angle_coeff	 1 bb    0.00000    1.53000    1.53000  # c,c,c
angle_coeff	 2 bb    3.38720    1.53000    1.10100  # c,c,hc
angle_coeff	 3 bb   11.43180    1.53000    1.42000  # c,c,oc
angle_coeff	 4 bb    0.00000    1.53000    1.53000  # c,c1,c
angle_coeff	 5 bb    3.38720    1.53000    1.10100  # c,c1,hc
angle_coeff	 6 bb   11.43180    1.53000    1.42000  # c,c1,oc
angle_coeff	 7 bb    0.00000    1.53000    1.53000  # c,c3h,c
angle_coeff	 8 bb    3.38720    1.53000    1.10100  # c,c3h,hc
angle_coeff	 9 bb   11.43180    1.53000    1.42000  # c,c3h,o3e
angle_coeff	10 bb   -7.11310    1.42000    1.42000  # c,o3e,c3h
angle_coeff	11 bb   -7.11310    1.42000    1.42000  # c,oc,c1
angle_coeff	12 bb    0.00000    1.42000    1.37680  # c,oc,cp
angle_coeff	13 bb    0.00000    1.42000    0.96000  # c,oh,h
angle_coeff	14 bb    3.38720    1.53000    1.10100  # c1,c,hc
angle_coeff	15 bb   11.43180    1.53000    1.42000  # c1,c,oc
angle_coeff	16 bb   11.43180    1.53000    1.42000  # c1,c,oh
angle_coeff	17 bb    3.38720    1.53000    1.10100  # c3h,c,hc
angle_coeff	18 bb   11.43180    1.53000    1.42000  # c3h,c,o3e
angle_coeff	19 bb   11.43180    1.53000    1.42000  # c3h,c,oc
angle_coeff	20 bb   68.28560    1.41700    1.41700  # cp,cp,cp
angle_coeff	21 bb    1.07950    1.41700    1.09820  # cp,cp,hc
angle_coeff	22 bb   48.47540    1.41700    1.37680  # cp,cp,oc
angle_coeff	23 bb    5.33160    1.10100    1.10100  # hc,c,hc
angle_coeff	24 bb   23.19790    1.10100    1.42000  # hc,c,o3e
angle_coeff	25 bb   23.19790    1.10100    1.42000  # hc,c,oc
angle_coeff	26 bb   23.19790    1.10100    1.42000  # hc,c,oh
angle_coeff	27 bb   23.19790    1.10100    1.42000  # hc,c1,oc
angle_coeff	28 bb   23.19790    1.10100    1.42000  # hc,c3h,o3e

# BondAngle Coeffs

angle_coeff	 1 ba    8.01600    8.01600    1.53000    1.53000  # c,c,c
angle_coeff	 2 ba   20.75400   11.42100    1.53000    1.10100  # c,c,hc
angle_coeff	 3 ba   20.40330    2.68680    1.53000    1.42000  # c,c,oc
angle_coeff	 4 ba    8.01600    8.01600    1.53000    1.53000  # c,c1,c
angle_coeff	 5 ba   20.75400   11.42100    1.53000    1.10100  # c,c1,hc
angle_coeff	 6 ba   20.40330    2.68680    1.53000    1.42000  # c,c1,oc
angle_coeff	 7 ba    8.01600    8.01600    1.53000    1.53000  # c,c3h,c
angle_coeff	 8 ba   20.75400   11.42100    1.53000    1.10100  # c,c3h,hc
angle_coeff	 9 ba    2.68680   20.40330    1.53000    1.42000  # c,c3h,o3e
angle_coeff	10 ba   -2.81120   -2.81120    1.42000    1.42000  # c,o3e,c3h
angle_coeff	11 ba   -2.81120   -2.81120    1.42000    1.42000  # c,oc,c1
angle_coeff	12 ba    0.00000    0.00000    1.42000    1.37680  # c,oc,cp
angle_coeff	13 ba    0.00000    0.00000    1.42000    0.96000  # c,oh,h
angle_coeff	14 ba   11.42100   20.75400    1.53000    1.10100  # c1,c,hc
angle_coeff	15 ba   20.40330    2.68680    1.53000    1.42000  # c1,c,oc
angle_coeff	16 ba   20.40330    2.68680    1.53000    1.42000  # c1,c,oh
angle_coeff	17 ba   11.42100   20.75400    1.53000    1.10100  # c3h,c,hc
angle_coeff	18 ba    2.68680   20.40330    1.53000    1.42000  # c3h,c,o3e
angle_coeff	19 ba   20.40330    2.68680    1.53000    1.42000  # c3h,c,oc
angle_coeff	20 ba   28.87080   28.87080    1.41700    1.41700  # cp,cp,cp
angle_coeff	21 ba   20.00330   24.21830    1.41700    1.09820  # cp,cp,hc
angle_coeff	22 ba   58.47900  107.68060    1.41700    1.37680  # cp,cp,oc
angle_coeff	23 ba   18.10300   18.10300    1.10100    1.10100  # hc,c,hc
angle_coeff	24 ba    4.61890   55.32700    1.10100    1.42000  # hc,c,o3e
angle_coeff	25 ba   55.32700    4.61890    1.10100    1.42000  # hc,c,oc
angle_coeff	26 ba    4.61890   55.32700    1.10100    1.42000  # hc,c,oh
angle_coeff	27 ba   55.32700    4.61890    1.10100    1.42000  # hc,c1,oc
angle_coeff	28 ba    4.61890   55.32700    1.10100    1.42000  # hc,c3h,o3e

# Dihedral Coeffs

dihedral_coeff	 1    0.00000    0.00000    0.03160    0.00000   -0.16810    0.00000  # c,c,c,hc
dihedral_coeff	 2    0.71370    0.00000    0.26600    0.00000   -0.25450    0.00000  # c,c,c,oc
dihedral_coeff	 3   -0.52030    0.00000   -0.30280    0.00000   -0.34500    0.00000  # c,c,oc,c1
dihedral_coeff	 4    0.00000    0.00000    0.00000    0.00000    0.13000  180.00000  # c,c,oc,cp
dihedral_coeff	 5    0.00000    0.00000    0.03160    0.00000   -0.16810    0.00000  # c,c1,c,hc
dihedral_coeff	 6    0.71370    0.00000    0.26600    0.00000   -0.25450    0.00000  # c,c1,c,oc
dihedral_coeff	 7    0.71370    0.00000    0.26600    0.00000   -0.25450    0.00000  # c,c1,c,oh
dihedral_coeff	 8   -0.52030    0.00000   -0.30280    0.00000   -0.34500    0.00000  # c,c1,oc,c
dihedral_coeff	 9    0.00000    0.00000    0.03160    0.00000   -0.16810    0.00000  # c,c3h,c,hc
dihedral_coeff	10    0.71370    0.00000    0.26600    0.00000   -0.25450    0.00000  # c,c3h,c,o3e
dihedral_coeff	11    0.71370    0.00000    0.26600    0.00000   -0.25450    0.00000  # c,c3h,c,oc
dihedral_coeff	12   -0.52030    0.00000   -0.30280    0.00000   -0.34500    0.00000  # c,c3h,o3e,c
dihedral_coeff	13    0.53020    0.00000    0.00000    0.00000   -0.39660    0.00000  # c,o3e,c3h,hc
dihedral_coeff	14    0.53020    0.00000    0.00000    0.00000   -0.39660    0.00000  # c,oc,c1,hc
dihedral_coeff	15    0.00000    0.00000    1.50000    0.00000    0.00000    0.00000  # c,oc,cp,cp
dihedral_coeff	16   -0.52030    0.00000   -0.30280    0.00000   -0.34500    0.00000  # c1,c,oc,c1
dihedral_coeff	17    0.00000    0.00000    0.00000    0.00000    0.13000  180.00000  # c1,c,oc,cp
dihedral_coeff	18    0.00000    0.00000    0.00000    0.00000    0.13000  180.00000  # c1,c,oh,h
dihedral_coeff	19    0.53020    0.00000    0.00000    0.00000   -0.39660    0.00000  # c1,oc,c,hc
dihedral_coeff	20    0.00000    0.00000    0.00000    0.00000    0.13000  180.00000  # c3h,c,oc,cp
dihedral_coeff	21    0.53020    0.00000    0.00000    0.00000   -0.39660    0.00000  # c3h,o3e,c,hc
dihedral_coeff	22    8.36670    0.00000    1.19320    0.00000    0.00000    0.00000  # cp,cp,cp,cp
dihedral_coeff	23    0.00000    0.00000    3.96610    0.00000    0.00000    0.00000  # cp,cp,cp,hc
dihedral_coeff	24    0.00000    0.00000    4.84980    0.00000    0.00000    0.00000  # cp,cp,cp,oc
dihedral_coeff	25    0.95130    0.00000    0.11550    0.00000    0.07200    0.00000  # cp,oc,c,hc
dihedral_coeff	26    0.00000    0.00000    0.00000    0.00000    0.13000  180.00000  # h,oh,c,hc
dihedral_coeff	27   -0.14320    0.00000    0.06170    0.00000   -0.10830    0.00000  # hc,c,c,hc
dihedral_coeff	28   -0.14350    0.00000    0.25300    0.00000   -0.09050    0.00000  # hc,c,c,oc
dihedral_coeff	29   -0.14320    0.00000    0.06170    0.00000   -0.10830    0.00000  # hc,c,c1,hc
dihedral_coeff	30   -0.14350    0.00000    0.25300    0.00000   -0.09050    0.00000  # hc,c,c1,oc
dihedral_coeff	31   -0.14320    0.00000    0.06170    0.00000   -0.10830    0.00000  # hc,c,c3h,hc
dihedral_coeff	32   -0.14350    0.00000    0.25300    0.00000   -0.09050    0.00000  # hc,c,c3h,o3e
dihedral_coeff	33   -0.14350    0.00000    0.25300    0.00000   -0.09050    0.00000  # hc,c1,c,oc
dihedral_coeff	34   -0.14350    0.00000    0.25300    0.00000   -0.09050    0.00000  # hc,c1,c,oh
dihedral_coeff	35   -0.14350    0.00000    0.25300    0.00000   -0.09050    0.00000  # hc,c3h,c,o3e
dihedral_coeff	36   -0.14350    0.00000    0.25300    0.00000   -0.09050    0.00000  # hc,c3h,c,oc
dihedral_coeff	37    0.00000    0.00000    1.87690    0.00000    0.00000    0.00000  # hc,cp,cp,hc
dihedral_coeff	38    0.00000    0.00000    1.72340    0.00000    0.00000    0.00000  # hc,cp,cp,oc
dihedral_coeff	39   -0.18200    0.00000   -0.10840    0.00000   -0.70470    0.00000  # o3e,c3h,c,oc
dihedral_coeff	40   -0.18200    0.00000   -0.10840    0.00000   -0.70470    0.00000  # oc,c,c1,oc
dihedral_coeff	41   -0.18200    0.00000   -0.10840    0.00000   -0.70470    0.00000  # oc,c1,c,oh

# MiddleBondTorsion Coeffs

dihedral_coeff	 1 mbt  -14.87900   -3.65810   -0.31380    1.53000  # c,c,c,hc
dihedral_coeff	 2 mbt  -21.88420   -7.67640   -0.68680    1.53000  # c,c,c,oc
dihedral_coeff	 3 mbt   -5.92880   -2.70070   -0.31750    1.42000  # c,c,oc,c1
dihedral_coeff	 4 mbt    0.00000    0.00000    0.00000    1.42000  # c,c,oc,cp
dihedral_coeff	 5 mbt  -14.87900   -3.65810   -0.31380    1.53000  # c,c1,c,hc
dihedral_coeff	 6 mbt  -21.88420   -7.67640   -0.68680    1.53000  # c,c1,c,oc
dihedral_coeff	 7 mbt  -21.88420   -7.67640   -0.68680    1.53000  # c,c1,c,oh
dihedral_coeff	 8 mbt   -5.92880   -2.70070   -0.31750    1.42000  # c,c1,oc,c
dihedral_coeff	 9 mbt  -14.87900   -3.65810   -0.31380    1.53000  # c,c3h,c,hc
dihedral_coeff	10 mbt  -21.88420   -7.67640   -0.68680    1.53000  # c,c3h,c,o3e
dihedral_coeff	11 mbt  -21.88420   -7.67640   -0.68680    1.53000  # c,c3h,c,oc
dihedral_coeff	12 mbt   -5.92880   -2.70070   -0.31750    1.42000  # c,c3h,o3e,c
dihedral_coeff	13 mbt   -6.80070   -4.65460   -1.41010    1.42000  # c,o3e,c3h,hc
dihedral_coeff	14 mbt   -6.80070   -4.65460   -1.41010    1.42000  # c,oc,c1,hc
dihedral_coeff	15 mbt    0.00000    0.00000    0.00000    1.37680  # c,oc,cp,cp
dihedral_coeff	16 mbt   -5.92880   -2.70070   -0.31750    1.42000  # c1,c,oc,c1
dihedral_coeff	17 mbt    0.00000    0.00000    0.00000    1.42000  # c1,c,oc,cp
dihedral_coeff	18 mbt    0.00000    0.00000    0.00000    1.42000  # c1,c,oh,h
dihedral_coeff	19 mbt   -6.80070   -4.65460   -1.41010    1.42000  # c1,oc,c,hc
dihedral_coeff	20 mbt    0.00000    0.00000    0.00000    1.42000  # c3h,c,oc,cp
dihedral_coeff	21 mbt   -6.80070   -4.65460   -1.41010    1.42000  # c3h,o3e,c,hc
dihedral_coeff	22 mbt   27.59890   -2.31200    0.00000    1.41700  # cp,cp,cp,cp
dihedral_coeff	23 mbt    0.00000   -1.15210    0.00000    1.41700  # cp,cp,cp,hc
dihedral_coeff	24 mbt    0.00000    4.82550    0.00000    1.41700  # cp,cp,cp,oc
dihedral_coeff	25 mbt    0.00000    0.00000    0.00000    1.42000  # cp,oc,c,hc
dihedral_coeff	26 mbt    0.00000    0.00000    0.00000    1.42000  # h,oh,c,hc
dihedral_coeff	27 mbt  -14.26100   -0.53220   -0.48640    1.53000  # hc,c,c,hc
dihedral_coeff	28 mbt  -16.79750   -1.22960   -0.27500    1.53000  # hc,c,c,oc
dihedral_coeff	29 mbt  -14.26100   -0.53220   -0.48640    1.53000  # hc,c,c1,hc
dihedral_coeff	30 mbt  -16.79750   -1.22960   -0.27500    1.53000  # hc,c,c1,oc
dihedral_coeff	31 mbt  -14.26100   -0.53220   -0.48640    1.53000  # hc,c,c3h,hc
dihedral_coeff	32 mbt  -16.79750   -1.22960   -0.27500    1.53000  # hc,c,c3h,o3e
dihedral_coeff	33 mbt  -16.79750   -1.22960   -0.27500    1.53000  # hc,c1,c,oc
dihedral_coeff	34 mbt  -16.79750   -1.22960   -0.27500    1.53000  # hc,c1,c,oh
dihedral_coeff	35 mbt  -16.79750   -1.22960   -0.27500    1.53000  # hc,c3h,c,o3e
dihedral_coeff	36 mbt  -16.79750   -1.22960   -0.27500    1.53000  # hc,c3h,c,oc
dihedral_coeff	37 mbt    0.00000    4.82280    0.00000    1.41700  # hc,cp,cp,hc
dihedral_coeff	38 mbt    0.00000    5.54320    0.00000    1.41700  # hc,cp,cp,oc
dihedral_coeff	39 mbt  -17.25850   -3.61570   -0.83640    1.53000  # o3e,c3h,c,oc
dihedral_coeff	40 mbt  -17.25850   -3.61570   -0.83640    1.53000  # oc,c,c1,oc
dihedral_coeff	41 mbt  -17.25850   -3.61570   -0.83640    1.53000  # oc,c1,c,oh

# EndBondTorsion Coeffs

dihedral_coeff	 1 ebt    0.24860    0.24220   -0.09250    0.08140    0.05910    0.22190    1.53000    1.10100  # c,c,c,hc
dihedral_coeff	 2 ebt    1.15380    0.84090   -0.91380   -0.31900    0.44110   -0.71740    1.53000    1.42000  # c,c,c,oc
dihedral_coeff	 3 ebt   -0.24560    1.05170   -0.77950    0.47410    1.26350    0.55760    1.53000    1.42000  # c,c,oc,c1
dihedral_coeff	 4 ebt    0.00000    0.00000    0.00000    0.00000    0.00000    0.00000    1.53000    1.37680  # c,c,oc,cp
dihedral_coeff	 5 ebt    0.24860    0.24220   -0.09250    0.08140    0.05910    0.22190    1.53000    1.10100  # c,c1,c,hc
dihedral_coeff	 6 ebt    1.15380    0.84090   -0.91380   -0.31900    0.44110   -0.71740    1.53000    1.42000  # c,c1,c,oc
dihedral_coeff	 7 ebt   -0.31900    0.44110   -0.71740    1.15380    0.84090   -0.91380    1.53000    1.42000  # c,c1,c,oh
dihedral_coeff	 8 ebt    0.47410    1.26350    0.55760   -0.24560    1.05170   -0.77950    1.53000    1.42000  # c,c1,oc,c
dihedral_coeff	 9 ebt    0.24860    0.24220   -0.09250    0.08140    0.05910    0.22190    1.53000    1.10100  # c,c3h,c,hc
dihedral_coeff	10 ebt   -0.31900    0.44110   -0.71740    1.15380    0.84090   -0.91380    1.53000    1.42000  # c,c3h,c,o3e
dihedral_coeff	11 ebt    1.15380    0.84090   -0.91380   -0.31900    0.44110   -0.71740    1.53000    1.42000  # c,c3h,c,oc
dihedral_coeff	12 ebt   -0.24560    1.05170   -0.77950    0.47410    1.26350    0.55760    1.53000    1.42000  # c,c3h,o3e,c
dihedral_coeff	13 ebt   -0.16200    0.15640   -1.14080   -0.60540    1.33390    0.96480    1.42000    1.10100  # c,o3e,c3h,hc
dihedral_coeff	14 ebt   -0.16200    0.15640   -1.14080   -0.60540    1.33390    0.96480    1.42000    1.10100  # c,oc,c1,hc
dihedral_coeff	15 ebt    0.00000    0.00000    0.00000    0.00000    0.00000    0.00000    1.42000    1.41700  # c,oc,cp,cp
dihedral_coeff	16 ebt    0.47410    1.26350    0.55760   -0.24560    1.05170   -0.77950    1.53000    1.42000  # c1,c,oc,c1
dihedral_coeff	17 ebt    0.00000    0.00000    0.00000    0.00000    0.00000    0.00000    1.53000    1.37680  # c1,c,oc,cp
dihedral_coeff	18 ebt    0.00000    0.00000    0.00000    0.00000    0.00000    0.00000    1.53000    0.96000  # c1,c,oh,h
dihedral_coeff	19 ebt   -0.60540    1.33390    0.96480   -0.16200    0.15640   -1.14080    1.42000    1.10100  # c1,oc,c,hc
dihedral_coeff	20 ebt    0.00000    0.00000    0.00000    0.00000    0.00000    0.00000    1.53000    1.37680  # c3h,c,oc,cp
dihedral_coeff	21 ebt   -0.60540    1.33390    0.96480   -0.16200    0.15640   -1.14080    1.42000    1.10100  # c3h,o3e,c,hc
dihedral_coeff	22 ebt   -0.11850    6.32040    0.00000   -0.11850    6.32040    0.00000    1.41700    1.41700  # cp,cp,cp,cp
dihedral_coeff	23 ebt    0.00000   -6.89580    0.00000    0.00000   -0.46690    0.00000    1.41700    1.09820  # cp,cp,cp,hc
dihedral_coeff	24 ebt    0.00000    0.26550    0.00000    0.00000    4.89050    0.00000    1.41700    1.37680  # cp,cp,cp,oc
dihedral_coeff	25 ebt    0.00000    0.00000    0.00000    0.00000    0.00000    0.00000    1.37680    1.10100  # cp,oc,c,hc
dihedral_coeff	26 ebt    0.00000    0.00000    0.00000    0.00000    0.00000    0.00000    0.96000    1.10100  # h,oh,c,hc
dihedral_coeff	27 ebt    0.21300    0.31200    0.07770    0.21300    0.31200    0.07770    1.10100    1.10100  # hc,c,c,hc
dihedral_coeff	28 ebt    0.59030    0.66690    0.85840    0.96810    0.95510    0.04360    1.10100    1.42000  # hc,c,c,oc
dihedral_coeff	29 ebt    0.21300    0.31200    0.07770    0.21300    0.31200    0.07770    1.10100    1.10100  # hc,c,c1,hc
dihedral_coeff	30 ebt    0.59030    0.66690    0.85840    0.96810    0.95510    0.04360    1.10100    1.42000  # hc,c,c1,oc
dihedral_coeff	31 ebt    0.21300    0.31200    0.07770    0.21300    0.31200    0.07770    1.10100    1.10100  # hc,c,c3h,hc
dihedral_coeff	32 ebt    0.96810    0.95510    0.04360    0.59030    0.66690    0.85840    1.10100    1.42000  # hc,c,c3h,o3e
dihedral_coeff	33 ebt    0.59030    0.66690    0.85840    0.96810    0.95510    0.04360    1.10100    1.42000  # hc,c1,c,oc
dihedral_coeff	34 ebt    0.96810    0.95510    0.04360    0.59030    0.66690    0.85840    1.10100    1.42000  # hc,c1,c,oh
dihedral_coeff	35 ebt    0.96810    0.95510    0.04360    0.59030    0.66690    0.85840    1.10100    1.42000  # hc,c3h,c,o3e
dihedral_coeff	36 ebt    0.59030    0.66690    0.85840    0.96810    0.95510    0.04360    1.10100    1.42000  # hc,c3h,c,oc
dihedral_coeff	37 ebt    0.00000   -0.68900    0.00000    0.00000   -0.68900    0.00000    1.09820    1.09820  # hc,cp,cp,hc
dihedral_coeff	38 ebt    0.00000    4.26410    0.00000    0.00000   -1.58670    0.00000    1.09820    1.37680  # hc,cp,cp,oc
dihedral_coeff	39 ebt    1.01650    0.75530   -0.46090    1.01650    0.75530   -0.46090    1.42000    1.42000  # o3e,c3h,c,oc
dihedral_coeff	40 ebt    1.01650    0.75530   -0.46090    1.01650    0.75530   -0.46090    1.42000    1.42000  # oc,c,c1,oc
dihedral_coeff	41 ebt    1.01650    0.75530   -0.46090    1.01650    0.75530   -0.46090    1.42000    1.42000  # oc,c1,c,oh

# AngleTorsion Coeffs

dihedral_coeff	 1 at   -0.24540    0.00000   -0.11360    0.31130    0.45160   -0.19880  112.67000  110.77000  # c,c,c,hc
dihedral_coeff	 2 at    0.96720   -0.75660   -1.23310    0.56230   -0.30410   -0.40150  112.67000  111.27000  # c,c,c,oc
dihedral_coeff	 3 at   -2.74660    1.48770   -0.89550    0.56760    0.94500    0.07030  111.27000  104.50000  # c,c,oc,c1
dihedral_coeff	 4 at    0.00000    0.00000    0.00000    0.00000    0.00000    0.00000  111.27000  102.96950  # c,c,oc,cp
dihedral_coeff	 5 at   -0.24540    0.00000   -0.11360    0.31130    0.45160   -0.19880  112.67000  110.77000  # c,c1,c,hc
dihedral_coeff	 6 at    0.96720   -0.75660   -1.23310    0.56230   -0.30410   -0.40150  112.67000  111.27000  # c,c1,c,oc
dihedral_coeff	 7 at    0.56230   -0.30410   -0.40150    0.96720   -0.75660   -1.23310  112.67000  111.27000  # c,c1,c,oh
dihedral_coeff	 8 at    0.56760    0.94500    0.07030   -2.74660    1.48770   -0.89550  111.27000  104.50000  # c,c1,oc,c
dihedral_coeff	 9 at   -0.24540    0.00000   -0.11360    0.31130    0.45160   -0.19880  112.67000  110.77000  # c,c3h,c,hc
dihedral_coeff	10 at    0.56230   -0.30410   -0.40150    0.96720   -0.75660   -1.23310  112.67000  111.27000  # c,c3h,c,o3e
dihedral_coeff	11 at    0.96720   -0.75660   -1.23310    0.56230   -0.30410   -0.40150  112.67000  111.27000  # c,c3h,c,oc
dihedral_coeff	12 at   -2.74660    1.48770   -0.89550    0.56760    0.94500    0.07030  111.27000  104.50000  # c,c3h,o3e,c
dihedral_coeff	13 at   -0.77770    0.43400   -0.66530   -1.82340    1.63930    0.51440  104.50000  108.72800  # c,o3e,c3h,hc
dihedral_coeff	14 at   -0.77770    0.43400   -0.66530   -1.82340    1.63930    0.51440  104.50000  108.72800  # c,oc,c1,hc
dihedral_coeff	15 at    0.00000    0.00000    0.00000    0.00000    0.00000    0.00000  102.96950  123.42000  # c,oc,cp,cp
dihedral_coeff	16 at    0.56760    0.94500    0.07030   -2.74660    1.48770   -0.89550  111.27000  104.50000  # c1,c,oc,c1
dihedral_coeff	17 at    0.00000    0.00000    0.00000    0.00000    0.00000    0.00000  111.27000  102.96950  # c1,c,oc,cp
dihedral_coeff	18 at    0.00000    0.00000    0.00000    0.00000    0.00000    0.00000  111.27000  109.00000  # c1,c,oh,h
dihedral_coeff	19 at   -1.82340    1.63930    0.51440   -0.77770    0.43400   -0.66530  104.50000  108.72800  # c1,oc,c,hc
dihedral_coeff	20 at    0.00000    0.00000    0.00000    0.00000    0.00000    0.00000  111.27000  102.96950  # c3h,c,oc,cp
dihedral_coeff	21 at   -1.82340    1.63930    0.51440   -0.77770    0.43400   -0.66530  104.50000  108.72800  # c3h,o3e,c,hc
dihedral_coeff	22 at    1.97670    1.02390    0.00000    1.97670    1.02390    0.00000  118.90000  118.90000  # cp,cp,cp,cp
dihedral_coeff	23 at    0.00000    2.50140    0.00000    0.00000    2.71470    0.00000  118.90000  117.94000  # cp,cp,cp,hc
dihedral_coeff	24 at    0.00000   10.01550    0.00000    0.00000    1.74040    0.00000  118.90000  123.42000  # cp,cp,cp,oc
dihedral_coeff	25 at    0.00000    0.00000    0.00000    0.00000    0.00000    0.00000  102.96950  108.72800  # cp,oc,c,hc
dihedral_coeff	26 at    0.00000    0.00000    0.00000    0.00000    0.00000    0.00000  109.00000  108.72800  # h,oh,c,hc
dihedral_coeff	27 at   -0.80850    0.55690   -0.24660   -0.80850    0.55690   -0.24660  110.77000  110.77000  # hc,c,c,hc
dihedral_coeff	28 at   -0.18920    0.49180    0.72730    2.36680    2.49200   -1.01220  110.77000  111.27000  # hc,c,c,oc
dihedral_coeff	29 at   -0.80850    0.55690   -0.24660   -0.80850    0.55690   -0.24660  110.77000  110.77000  # hc,c,c1,hc
dihedral_coeff	30 at   -0.18920    0.49180    0.72730    2.36680    2.49200   -1.01220  110.77000  111.27000  # hc,c,c1,oc
dihedral_coeff	31 at   -0.80850    0.55690   -0.24660   -0.80850    0.55690   -0.24660  110.77000  110.77000  # hc,c,c3h,hc
dihedral_coeff	32 at    2.36680    2.49200   -1.01220   -0.18920    0.49180    0.72730  110.77000  111.27000  # hc,c,c3h,o3e
dihedral_coeff	33 at   -0.18920    0.49180    0.72730    2.36680    2.49200   -1.01220  110.77000  111.27000  # hc,c1,c,oc
dihedral_coeff	34 at    2.36680    2.49200   -1.01220   -0.18920    0.49180    0.72730  110.77000  111.27000  # hc,c1,c,oh
dihedral_coeff	35 at    2.36680    2.49200   -1.01220   -0.18920    0.49180    0.72730  110.77000  111.27000  # hc,c3h,c,o3e
dihedral_coeff	36 at   -0.18920    0.49180    0.72730    2.36680    2.49200   -1.01220  110.77000  111.27000  # hc,c3h,c,oc
dihedral_coeff	37 at    0.00000    2.45010    0.00000    0.00000    2.45010    0.00000  117.94000  117.94000  # hc,cp,cp,hc
dihedral_coeff	38 at    0.00000    2.57060    0.00000    0.00000    1.87290    0.00000  117.94000  123.42000  # hc,cp,cp,oc
dihedral_coeff	39 at    0.55110    0.97370   -0.66730    0.55110    0.97370   -0.66730  111.27000  111.27000  # o3e,c3h,c,oc
dihedral_coeff	40 at    0.55110    0.97370   -0.66730    0.55110    0.97370   -0.66730  111.27000  111.27000  # oc,c,c1,oc
dihedral_coeff	41 at    0.55110    0.97370   -0.66730    0.55110    0.97370   -0.66730  111.27000  111.27000  # oc,c1,c,oh

# AngleAngleTorsion Coeffs

dihedral_coeff	 1 aat  -16.16400  112.67000  110.77000  # c,c,c,hc
dihedral_coeff	 2 aat  -29.04200  112.67000  111.27000  # c,c,c,oc
dihedral_coeff	 3 aat  -19.00590  111.27000  104.50000  # c,c,oc,c1
dihedral_coeff	 4 aat    0.00000  111.27000  102.96950  # c,c,oc,cp
dihedral_coeff	 5 aat  -16.16400  112.67000  110.77000  # c,c1,c,hc
dihedral_coeff	 6 aat  -29.04200  112.67000  111.27000  # c,c1,c,oc
dihedral_coeff	 7 aat  -29.04200  112.67000  111.27000  # c,c1,c,oh
dihedral_coeff	 8 aat  -19.00590  111.27000  104.50000  # c,c1,oc,c
dihedral_coeff	 9 aat  -16.16400  112.67000  110.77000  # c,c3h,c,hc
dihedral_coeff	10 aat  -29.04200  112.67000  111.27000  # c,c3h,c,o3e
dihedral_coeff	11 aat  -29.04200  112.67000  111.27000  # c,c3h,c,oc
dihedral_coeff	12 aat  -19.00590  111.27000  104.50000  # c,c3h,o3e,c
dihedral_coeff	13 aat  -16.44380  104.50000  108.72800  # c,o3e,c3h,hc
dihedral_coeff	14 aat  -16.44380  104.50000  108.72800  # c,oc,c1,hc
dihedral_coeff	15 aat    0.00000  102.96950  123.42000  # c,oc,cp,cp
dihedral_coeff	16 aat  -19.00590  111.27000  104.50000  # c1,c,oc,c1
dihedral_coeff	17 aat    0.00000  111.27000  102.96950  # c1,c,oc,cp
dihedral_coeff	18 aat    0.00000  111.27000  109.00000  # c1,c,oh,h
dihedral_coeff	19 aat  -16.44380  104.50000  108.72800  # c1,oc,c,hc
dihedral_coeff	20 aat    0.00000  111.27000  102.96950  # c3h,c,oc,cp
dihedral_coeff	21 aat  -16.44380  104.50000  108.72800  # c3h,o3e,c,hc
dihedral_coeff	22 aat    0.00000  118.90000  118.90000  # cp,cp,cp,cp
dihedral_coeff	23 aat   -4.81410  118.90000  117.94000  # cp,cp,cp,hc
dihedral_coeff	24 aat  -21.02470  118.90000  123.42000  # cp,cp,cp,oc
dihedral_coeff	25 aat    0.00000  102.96950  108.72800  # cp,oc,c,hc
dihedral_coeff	26 aat    0.00000  109.00000  108.72800  # h,oh,c,hc
dihedral_coeff	27 aat  -12.56400  110.77000  110.77000  # hc,c,c,hc
dihedral_coeff	28 aat  -20.20060  110.77000  111.27000  # hc,c,c,oc
dihedral_coeff	29 aat  -12.56400  110.77000  110.77000  # hc,c,c1,hc
dihedral_coeff	30 aat  -20.20060  110.77000  111.27000  # hc,c,c1,oc
dihedral_coeff	31 aat  -12.56400  110.77000  110.77000  # hc,c,c3h,hc
dihedral_coeff	32 aat  -20.20060  110.77000  111.27000  # hc,c,c3h,o3e
dihedral_coeff	33 aat  -20.20060  110.77000  111.27000  # hc,c1,c,oc
dihedral_coeff	34 aat  -20.20060  110.77000  111.27000  # hc,c1,c,oh
dihedral_coeff	35 aat  -20.20060  110.77000  111.27000  # hc,c3h,c,o3e
dihedral_coeff	36 aat  -20.20060  110.77000  111.27000  # hc,c3h,c,oc
dihedral_coeff	37 aat    0.35980  117.94000  117.94000  # hc,cp,cp,hc
dihedral_coeff	38 aat    4.22960  117.94000  123.42000  # hc,cp,cp,oc
dihedral_coeff	39 aat  -14.04840  111.27000  111.27000  # o3e,c3h,c,oc
dihedral_coeff	40 aat  -14.04840  111.27000  111.27000  # oc,c,c1,oc
dihedral_coeff	41 aat  -14.04840  111.27000  111.27000  # oc,c1,c,oh

# BondBond13 Coeffs

dihedral_coeff	 1 bb13    0.00000    1.53000    1.10100  # c,c,c,hc
dihedral_coeff	 2 bb13    0.00000    1.53000    1.42000  # c,c,c,oc
dihedral_coeff	 3 bb13    0.00000    1.53000    1.42000  # c,c,oc,c1
dihedral_coeff	 4 bb13    0.00000    1.53000    1.37680  # c,c,oc,cp
dihedral_coeff	 5 bb13    0.00000    1.53000    1.10100  # c,c1,c,hc
dihedral_coeff	 6 bb13    0.00000    1.53000    1.42000  # c,c1,c,oc
dihedral_coeff	 7 bb13    0.00000    1.53000    1.42000  # c,c1,c,oh
dihedral_coeff	 8 bb13    0.00000    1.53000    1.42000  # c,c1,oc,c
dihedral_coeff	 9 bb13    0.00000    1.53000    1.10100  # c,c3h,c,hc
dihedral_coeff	10 bb13    0.00000    1.53000    1.42000  # c,c3h,c,o3e
dihedral_coeff	11 bb13    0.00000    1.53000    1.42000  # c,c3h,c,oc
dihedral_coeff	12 bb13    0.00000    1.53000    1.42000  # c,c3h,o3e,c
dihedral_coeff	13 bb13    0.00000    1.42000    1.10100  # c,o3e,c3h,hc
dihedral_coeff	14 bb13    0.00000    1.42000    1.10100  # c,oc,c1,hc
dihedral_coeff	15 bb13    0.00000    1.42000    1.41700  # c,oc,cp,cp
dihedral_coeff	16 bb13    0.00000    1.53000    1.42000  # c1,c,oc,c1
dihedral_coeff	17 bb13    0.00000    1.53000    1.37680  # c1,c,oc,cp
dihedral_coeff	18 bb13    0.00000    1.53000    0.96000  # c1,c,oh,h
dihedral_coeff	19 bb13    0.00000    1.42000    1.10100  # c1,oc,c,hc
dihedral_coeff	20 bb13    0.00000    1.53000    1.37680  # c3h,c,oc,cp
dihedral_coeff	21 bb13    0.00000    1.42000    1.10100  # c3h,o3e,c,hc
dihedral_coeff	22 bb13   53.00000    1.41700    1.41700  # cp,cp,cp,cp
dihedral_coeff	23 bb13   -6.27410    1.41700    1.09820  # cp,cp,cp,hc
dihedral_coeff	24 bb13   -2.24360    1.41700    1.37680  # cp,cp,cp,oc
dihedral_coeff	25 bb13    0.00000    1.37680    1.10100  # cp,oc,c,hc
dihedral_coeff	26 bb13    0.00000    0.96000    1.10100  # h,oh,c,hc
dihedral_coeff	27 bb13    0.00000    1.10100    1.10100  # hc,c,c,hc
dihedral_coeff	28 bb13    0.00000    1.10100    1.42000  # hc,c,c,oc
dihedral_coeff	29 bb13    0.00000    1.10100    1.10100  # hc,c,c1,hc
dihedral_coeff	30 bb13    0.00000    1.10100    1.42000  # hc,c,c1,oc
dihedral_coeff	31 bb13    0.00000    1.10100    1.10100  # hc,c,c3h,hc
dihedral_coeff	32 bb13    0.00000    1.10100    1.42000  # hc,c,c3h,o3e
dihedral_coeff	33 bb13    0.00000    1.10100    1.42000  # hc,c1,c,oc
dihedral_coeff	34 bb13    0.00000    1.10100    1.42000  # hc,c1,c,oh
dihedral_coeff	35 bb13    0.00000    1.10100    1.42000  # hc,c3h,c,o3e
dihedral_coeff	36 bb13    0.00000    1.10100    1.42000  # hc,c3h,c,oc
dihedral_coeff	37 bb13   -1.70770    1.09820    1.09820  # hc,cp,cp,hc
dihedral_coeff	38 bb13    2.05170    1.09820    1.37680  # hc,cp,cp,oc
dihedral_coeff	39 bb13    0.00000    1.42000    1.42000  # o3e,c3h,c,oc
dihedral_coeff	40 bb13    0.00000    1.42000    1.42000  # oc,c,c1,oc
dihedral_coeff	41 bb13    0.00000    1.42000    1.42000  # oc,c1,c,oh

# Improper Coeffs

improper_coeff	 1    0.00000    0.00000  # c,c,c,hc
improper_coeff	 2    0.00000    0.00000  # c,c,hc,hc
improper_coeff	 3    0.00000    0.00000  # c,c,hc,oc
improper_coeff	 4    0.00000    0.00000  # c,c,oc,hc
improper_coeff	 5    0.00000    0.00000  # c,c1,hc,hc
improper_coeff	 6    0.00000    0.00000  # c,c1,hc,oc
improper_coeff	 7    0.00000    0.00000  # c,c1,hc,oh
improper_coeff	 8    0.00000    0.00000  # c,c1,oc,hc
improper_coeff	 9    0.00000    0.00000  # c,c3h,hc,hc
improper_coeff	10    0.00000    0.00000  # c,c3h,hc,oc
improper_coeff	11    0.00000    0.00000  # c,c3h,o3e,hc
improper_coeff	12    0.00000    0.00000  # c,hc,hc,o3e
improper_coeff	13    0.00000    0.00000  # c,hc,hc,oc
improper_coeff	14    0.00000    0.00000  # c,hc,hc,oh
improper_coeff	15    0.00000    0.00000  # c1,c,c,hc
improper_coeff	16    0.00000    0.00000  # c1,c,c,oc
improper_coeff	17    0.00000    0.00000  # c1,c,oc,hc
improper_coeff	18    0.00000    0.00000  # c3h,c,c,hc
improper_coeff	19    0.00000    0.00000  # c3h,c,c,o3e
improper_coeff	20    0.00000    0.00000  # c3h,c,o3e,hc
improper_coeff	21    4.89120    0.00000  # cp,cp,cp,hc
improper_coeff	22   13.04210    0.00000  # cp,cp,cp,oc

# AngleAngle Coeffs

improper_coeff	 1 aa   -1.31990   -1.31990    0.11840  112.67000  110.77000  110.77000  # c,c,c,hc
improper_coeff	 2 aa    0.27380   -0.48250    0.27380  110.77000  110.77000  107.66000  # c,c,hc,hc
improper_coeff	 3 aa    0.00000    0.00000    0.16890  110.77000  111.27000  108.72800  # c,c,hc,oc
improper_coeff	 4 aa    0.16890    0.00000    0.00000  111.27000  110.77000  108.72800  # c,c,oc,hc
improper_coeff	 5 aa    0.00000   -0.48250    0.00000  110.77000  110.77000  107.66000  # c,c1,hc,hc
improper_coeff	 6 aa    0.00000    0.00000    0.00000  110.77000  111.27000  108.72800  # c,c1,hc,oc
improper_coeff	 7 aa    0.00000    2.59260    0.00000  110.77000  111.27000  108.72800  # c,c1,hc,oh
improper_coeff	 8 aa    0.00000    0.00000    0.00000  111.27000  110.77000  108.72800  # c,c1,oc,hc
improper_coeff	 9 aa    0.00000   -0.48250    0.00000  110.77000  110.77000  107.66000  # c,c3h,hc,hc
improper_coeff	10 aa    0.00000    0.00000    0.00000  110.77000  111.27000  108.72800  # c,c3h,hc,oc
improper_coeff	11 aa    0.00000    2.59260    3.91770  111.27000  110.77000  108.72800  # c,c3h,o3e,hc
improper_coeff	12 aa    2.42590    2.42590    2.12830  107.66000  108.72800  108.72800  # c,hc,hc,o3e
improper_coeff	13 aa    0.00000    0.00000    2.12830  107.66000  108.72800  108.72800  # c,hc,hc,oc
improper_coeff	14 aa    2.42590    2.42590    2.12830  107.66000  108.72800  108.72800  # c,hc,hc,oh
improper_coeff	15 aa   -1.31990   -1.31990    0.11840  112.67000  110.77000  110.77000  # c1,c,c,hc
improper_coeff	16 aa    0.00000    0.00000   -3.57440  112.67000  111.27000  111.27000  # c1,c,c,oc
improper_coeff	17 aa    0.16890    0.00000    0.00000  111.27000  110.77000  108.72800  # c1,c,oc,hc
improper_coeff	18 aa   -1.31990   -1.31990    0.11840  112.67000  110.77000  110.77000  # c3h,c,c,hc
improper_coeff	19 aa   -0.83300   -0.83300   -3.57440  112.67000  111.27000  111.27000  # c3h,c,c,o3e
improper_coeff	20 aa    0.16890    2.59260    3.91770  111.27000  110.77000  108.72800  # c3h,c,o3e,hc
improper_coeff	21 aa    0.00000    0.00000    0.00000  118.90000  117.94000  117.94000  # cp,cp,cp,hc
improper_coeff	22 aa    0.00000    0.00000    0.00000  118.90000  123.42000  123.42000  # cp,cp,cp,oc

# ------------------------------- OPT Section -------------------------------
minimize 1.0e-5 1.0e-7 100000 400000
Generated 36 of 36 mixed pair_coeff terms from sixthpower/geometric mixing rule
Neighbor list info ...
  update: every = 1 steps, delay = 0 steps, check = yes
  max neighbors/atom: 2000, page size: 100000
  master list distance cutoff = 12
  ghost atom cutoff = 12
  binsize = 6, bins = 8 8 8
  1 neighbor lists, perpetual/occasional/extra = 1 0 0
  (1) pair lj/class2/coul/cut, perpetual
      attributes: half, newton on
      pair build: half/bin/newton
      stencil: half/bin/3d
      bin: standard
Per MPI rank memory allocation (min/avg/max) = 27.45 | 27.58 | 27.92 Mbytes
   Step          Temp          E_pair         E_mol          TotEng         Press     
         0   0             -656.27853      17824.832      17168.553     -1935.394     
        29   0             -797.36192      15414.777      14617.415      1737.5837    
Loop time of 2.29222 on 6 procs for 29 steps with 2996 atoms

99.6% CPU use with 6 MPI tasks x no OpenMP threads

Minimization stats:
  Stopping criterion = energy tolerance
  Energy initial, next-to-last, final = 
      17168.5533623642   14617.5170053104   14617.4154407734
  Force two-norm initial, final = 1959.6229 1383.6384
  Force max component initial, final = 153.29177 1055.308
  Final line search alpha, max atom move = 5.8979783e-07 0.00062241837
  Iterations, force evaluations = 29 94

MPI task timing breakdown:
Section |  min time  |  avg time  |  max time  |%varavg| %total
---------------------------------------------------------------
Pair    | 0.050558   | 0.1255     | 0.22979    |  17.1 |  5.48
Bond    | 0.079419   | 0.14796    | 0.24691    |  15.1 |  6.45
Neigh   | 0          | 0          | 0          |   0.0 |  0.00
Comm    | 0.707      | 0.95893    | 1.2152     |  17.7 | 41.83
Output  | 0          | 0          | 0          |   0.0 |  0.00
Modify  | 0          | 0          | 0          |   0.0 |  0.00
Other   |            | 1.06       |            |       | 46.24

Nlocal:        499.333 ave         708 max         313 min
Histogram: 2 0 0 0 1 1 0 0 1 1
Nghost:        3837.33 ave        4001 max        3693 min
Histogram: 1 0 2 0 1 0 0 1 0 1
Neighs:        72793.7 ave      126698 max       27846 min
Histogram: 2 0 0 1 0 0 2 0 0 1

Total # of neighbors = 436762
Ave neighs/atom = 145.78171
Ave special neighs/atom = 9.2216288
Neighbor list builds = 0
Dangerous builds = 0
# ------------------------------- Run Section -------------------------------
#

thermo_style custom step temp pe evdwl ecoul ebond eangle edihed eimp density vol
thermo          100

neigh_modify delay 0 every 1 check yes

fix Langevin  all langevin 300 300 100.0 482432
fix moveLimit all nve/limit 0.1
run 10000
Generated 36 of 36 mixed pair_coeff terms from sixthpower/geometric mixing rule
Per MPI rank memory allocation (min/avg/max) = 26.33 | 26.46 | 26.8 Mbytes
   Step          Temp          PotEng         E_vdwl         E_coul         E_bond        E_angle        E_dihed        E_impro        Density         Volume    
        29   0              14617.415     -565.38251     -231.97941      535.12863      15487.551     -546.23568     -61.666355      0.44999999     78744.633    
       100   183.69511      15481.881     -640.01096     -190.29867      1013.3767      15639.112     -290.93994     -49.358433      0.44999999     78744.633    
       200   266.94667      15964.558     -800.98204     -236.27011      1299.1398      15932.661     -201.59144     -28.399101      0.44999999     78744.633    
       300   288.03517      16100.536     -817.58354     -238.773        1337.5608      16010.493     -160.30057     -30.861385      0.44999999     78744.633    
       400   293.60587      16159.522     -844.21476     -300.67355      1430.6685      16066.193     -172.40005     -20.051326      0.44999999     78744.633    
       500   296.15343      16261.591     -830.46935     -219.83787      1439.7622      15963.897     -85.012077     -6.749036       0.44999999     78744.633    
       600   297.98456      16204.788     -844.02584     -309.23255      1380.304       16080.47      -93.409155     -9.318028       0.44999999     78744.633    
       700   301.12443      16193.723     -834.47106     -242.6928       1430.9768      15962.521     -97.351885     -25.259332      0.44999999     78744.633    
       800   306.30499      16193.4       -838.82461     -258.15934      1445.2701      15985.54      -124.18821     -16.238205      0.44999999     78744.633    
       900   307.39756      16273.12      -852.2658      -222.49847      1494.8135      16093.273     -235.63378     -4.5682912      0.44999999     78744.633    
      1000   307.01337      16177.627     -821.55402     -288.80675      1504.0348      16059.477     -264.89515     -10.629093      0.44999999     78744.633    
      1100   304.74948      16048.357     -828.39607     -408.39917      1448.7631      16046.01      -197.98196     -11.639299      0.44999999     78744.633    
      1200   302.15196      16041.006     -846.33775     -405.57453      1444.8026      16068.003     -200.44225     -19.445481      0.44999999     78744.633    
      1300   294.18235      16193.835     -836.12427     -307.615        1520.164       16146.306     -317.22207     -11.673392      0.44999999     78744.633    
      1400   296.17593      16024.621     -851.04058     -404.63798      1439.0413      16019.657     -166.00437     -12.393913      0.44999999     78744.633    
      1500   301.26779      16045.899     -865.98957     -388.99488      1425.9804      15994.164     -116.83112     -2.430396       0.44999999     78744.633    
      1600   298.37687      16081.615     -864.85553     -433.93781      1482.9123      16065.071     -145.32071     -22.25494       0.44999999     78744.633    
      1700   300.37203      16156.838     -847.50557     -314.27941      1458.9592      16031.657     -154.95966     -17.033017      0.44999999     78744.633    
      1800   295.859        16022.843     -870.26658     -315.52347      1388.967       15984.541     -149.15319     -15.721229      0.44999999     78744.633    
      1900   303.84604      16045.468     -847.8835      -330.49035      1425.3019      15938.654     -129.42756     -10.685843      0.44999999     78744.633    
      2000   301.02606      16028.878     -863.32877     -333.26003      1421.1791      16020.037     -214.12162     -1.6268609      0.44999999     78744.633    
      2100   302.83983      15988.078     -845.71019     -363.39199      1465.2975      15977.087     -231.61135     -13.593444      0.44999999     78744.633    
      2200   299.8666       15985.281     -884.65677     -382.48906      1396.153       16001.482     -137.67317     -7.5350439      0.44999999     78744.633    
      2300   301.8412       15931.894     -866.5728      -399.63086      1393.1842      15977.095     -171.26952     -0.91230297     0.44999999     78744.633    
      2400   306.59566      15958.839     -879.78245     -335.17089      1422.2713      15953.045     -186.17291     -15.350788      0.44999999     78744.633    
      2500   303.22285      15899.417     -880.52515     -461.53411      1456.6392      15984.212     -189.80554     -9.5695807      0.44999999     78744.633    
      2600   309.19115      15830.344     -890.61583     -475.06218      1384.4068      16014.378     -184.83718     -17.925815      0.44999999     78744.633    
      2700   305.2561       15957.665     -876.27114     -404.53875      1448.9737      15986.093     -183.32728     -13.264736      0.44999999     78744.633    
      2800   299.14989      16012.173     -872.03656     -379.14517      1417.12        16092.031     -236.25506     -9.5415945      0.44999999     78744.633    
      2900   295.14892      15946.422     -845.2912      -370.60314      1392.6103      15888.628     -104.55223     -14.369571      0.44999999     78744.633    
      3000   295.11386      15891.75      -898.94555     -438.39949      1424.8149      16025.692     -214.658       -6.7543548      0.44999999     78744.633    
      3100   305.52531      15866.298     -877.23924     -447.53476      1458.9817      15987.012     -241.03441     -13.887339      0.44999999     78744.633    
      3200   296.9159       15826.516     -874.7226      -468.13055      1382.8863      16045.67      -245.18411     -14.003319      0.44999999     78744.633    
      3300   305.85155      15976.65      -889.01173     -379.17961      1423.2039      16036.236     -201.07046     -13.528494      0.44999999     78744.633    
      3400   309.19936      15830.938     -858.72993     -428.11754      1423.6755      15960.025     -259.11836     -6.7965069      0.44999999     78744.633    
      3500   305.00112      15957.853     -859.39602     -366.61047      1455.6429      16005.017     -265.77454     -11.025976      0.44999999     78744.633    
      3600   299.85506      15893.538     -886.42593     -406.89118      1411.7211      16019.469     -238.51052     -5.8252817      0.44999999     78744.633    
      3700   303.86841      15847.28      -860.94766     -406.12957      1425.5206      15978.108     -267.53939     -21.731711      0.44999999     78744.633    
      3800   301.24928      15847.822     -911.86619     -441.37055      1424.4989      16004.244     -231.02363      3.3398245      0.44999999     78744.633    
      3900   296.79875      15833.849     -875.7752      -479.87671      1460.4535      15917.504     -162.26168     -26.194707      0.44999999     78744.633    
      4000   298.1313       15963.3       -879.67806     -373.60095      1507.9456      15981.095     -260.97744     -11.483746      0.44999999     78744.633    
      4100   297.14332      15861.905     -882.68465     -461.92169      1470.025       15992.231     -242.17823     -13.566285      0.44999999     78744.633    
      4200   307.13939      15896.729     -887.65392     -353.54723      1411.2353      15946.409     -205.75071     -13.962538      0.44999999     78744.633    
      4300   301.55075      16003.498     -872.8944      -266.25489      1451.4474      15992.075     -293.91387     -6.9612362      0.44999999     78744.633    
      4400   298.46446      15906.82      -881.32979     -356.8897       1407.2276      16023.067     -280.10158     -5.1527584      0.44999999     78744.633    
      4500   307.73979      15907.934     -904.2628      -346.01464      1496.5345      15978.189     -294.72826     -21.783231      0.44999999     78744.633    
      4600   309.1895       15850.03      -919.79187     -449.33101      1446.352       16023.376     -232.7994      -17.775954      0.44999999     78744.633    
      4700   302.7062       15880.799     -906.17557     -400.91528      1448.6122      15922.754     -172.27126     -11.20553       0.44999999     78744.633    
      4800   301.71156      15835.085     -913.81403     -434.69679      1443.2567      15983.44      -228.06925     -15.032457      0.44999999     78744.633    
      4900   304.74915      15862.226     -911.68892     -403.61071      1433.9561      16017.312     -264.08461     -9.6584439      0.44999999     78744.633    
      5000   301.69555      15920.008     -919.66217     -392.31428      1482.908       15971.938     -213.32195     -9.5396738      0.44999999     78744.633    
      5100   299.64781      15874.49      -880.66465     -459.55507      1430.8125      16043.238     -249.82991     -9.5115204      0.44999999     78744.633    
      5200   293.14294      15805.045     -911.74518     -460.14533      1432.5241      15957.511     -208.27263     -4.8260628      0.44999999     78744.633    
      5300   302.00301      15814.984     -902.52663     -434.07635      1492.5073      15896.041     -226.02103     -10.940623      0.44999999     78744.633    
      5400   307.49675      15747.815     -916.76428     -437.44569      1383.4775      15989.499     -261.53709     -9.4139035      0.44999999     78744.633    
      5500   299.88835      15766.198     -925.28313     -474.27928      1475.4335      15926.207     -218.57298     -17.307435      0.44999999     78744.633    
      5600   300.34366      15836.994     -925.61374     -443.21621      1437.5717      15971.629     -187.35259     -16.024135      0.44999999     78744.633    
      5700   300.68317      15819.428     -910.11031     -417.29929      1444.1301      15914.357     -203.00944     -8.6399365      0.44999999     78744.633    
      5800   302.18079      15730.347     -913.66506     -462.75358      1440.3786      15968.986     -281.50992     -21.08918       0.44999999     78744.633    
      5900   301.60356      15747.667     -930.69534     -472.57495      1382.0098      15937.188     -148.77072     -19.489992      0.44999999     78744.633    
      6000   293.153        15825.597     -930.25973     -425.87294      1406.0618      16044.121     -245.9199      -22.532715      0.44999999     78744.633    
      6100   306.68735      15851.269     -945.35939     -437.05114      1517.5834      15913.64      -190.51401     -7.0297851      0.44999999     78744.633    
      6200   302.4751       15912.678     -906.11269     -353.62336      1470.8616      15961.906     -251.91317     -8.4407843      0.44999999     78744.633    
      6300   300.07287      15940.551     -933.56546     -294.93284      1436.4177      15950.367     -207.05682     -10.678664      0.44999999     78744.633    
      6400   305.01613      15952.891     -927.74651     -238.40939      1500.5017      15929.329     -288.99538     -21.788756      0.44999999     78744.633    
      6500   300.02676      15876.782     -940.42693     -344.58991      1430.0582      15977.766     -231.31054     -14.714628      0.44999999     78744.633    
      6600   292.38222      15893.273     -928.98683     -353.56992      1419.1864      16048.219     -278.86101     -12.714312      0.44999999     78744.633    
      6700   302.19902      15832.485     -928.93726     -398.26066      1449.2179      16012.737     -279.9085      -22.363553      0.44999999     78744.633    
      6800   305.37953      15693.588     -954.13016     -486.68761      1439.385       15932.669     -220.48438     -17.164047      0.44999999     78744.633    
      6900   301.33758      15795.244     -953.28012     -455.3797       1436.995       15996.394     -221.83143     -7.6534938      0.44999999     78744.633    
      7000   290.84215      15779.794     -936.47331     -478.28882      1522.4361      15898.446     -219.33395     -6.9919571      0.44999999     78744.633    
      7100   294.04348      15792.098     -930.37801     -390.80303      1445.3316      15924.012     -237.79667     -18.26805       0.44999999     78744.633    
      7200   300.62163      15794.805     -930.76798     -442.45031      1483.2849      15946.407     -252.3641      -9.3045023      0.44999999     78744.633    
      7300   295.41739      15793.285     -938.58911     -471.92344      1478.2334      15990.615     -259.07087     -5.9803726      0.44999999     78744.633    
      7400   307.62343      15797.771     -956.72178     -418.65529      1439.1076      16002.206     -258.06703     -10.098917      0.44999999     78744.633    
      7500   305.06578      15764.413     -945.99699     -436.82573      1459.912       15945.068     -251.31158     -6.4330826      0.44999999     78744.633    
      7600   304.4849       15761.844     -956.08925     -413.54406      1400.2212      15938.804     -191.5401      -16.007697      0.44999999     78744.633    
      7700   303.98711      15792.045     -973.13437     -402.83427      1482.8106      15918.383     -228.41298     -4.7673317      0.44999999     78744.633    
      7800   305.43275      15871.747     -935.6703      -358.09518      1457.0769      15973.392     -259.9803      -4.9755113      0.44999999     78744.633    
      7900   299.72159      15853.155     -962.89745     -356.52739      1524.2003      15934.439     -274.82195     -11.237388      0.44999999     78744.633    
      8000   299.0375       15807.483     -934.52227     -410.96794      1486.861       15996.229     -320.95812     -9.1580425      0.44999999     78744.633    
      8100   305.18426      15782.162     -953.78714     -433.12327      1460.0348      16008.433     -298.85286     -0.54226172     0.44999999     78744.633    
      8200   301.47996      15850.208     -956.88704     -374.12344      1475.255       15941.643     -231.34946     -4.3304012      0.44999999     78744.633    
      8300   297.33994      15877.952     -924.04546     -349.8754       1422.8202      16004.429     -270.42029     -4.9559899      0.44999999     78744.633    
      8400   300.56099      15736.722     -940.62385     -395.81608      1438.4314      15897.412     -251.57035     -11.111273      0.44999999     78744.633    
      8500   300.07593      15786.542     -964.02089     -377.98047      1427.8432      15990.395     -280.14051     -9.5542793      0.44999999     78744.633    
      8600   306.33451      15740.691     -935.55008     -416.04648      1439.8733      15954.875     -304.54822      2.0874997      0.44999999     78744.633    
      8700   310.32177      15748.827     -953.38801     -461.81664      1480.3115      16031.823     -334.29281     -13.809554      0.44999999     78744.633    
      8800   295.5963       15703         -940.97795     -513.75977      1477.2834      15996.261     -311.78041     -4.0262935      0.44999999     78744.633    
      8900   295.08507      15719.62      -960.48992     -506.60189      1495.45        16019.41      -319.20906     -8.9388915      0.44999999     78744.633    
      9000   297.31846      15707.801     -965.59693     -426.93123      1502.4273      15880.224     -269.95323     -12.369288      0.44999999     78744.633    
      9100   296.84452      15740.35      -981.2877      -445.7029       1475.8646      16008.284     -306.69314     -10.11475       0.44999999     78744.633    
      9200   298.36816      15693.684     -963.54673     -470.10239      1446.5669      15899.712     -211.73738     -7.2077308      0.44999999     78744.633    
      9300   300.24757      15738.401     -953.88645     -417.70586      1434.2369      15931.602     -235.70967     -20.135728      0.44999999     78744.633    
      9400   304.08522      15628.028     -980.27083     -500.34866      1428.2409      15934.867     -241.55579     -12.905044      0.44999999     78744.633    
      9500   306.85887      15612.639     -971.63984     -547.62777      1449.3621      15957.364     -255.2971      -19.522327      0.44999999     78744.633    
      9600   295.48645      15623.407     -987.6195      -541.137        1390.0862      16021.123     -253.75097     -5.2941571      0.44999999     78744.633    
      9700   295.65334      15572.783     -992.21777     -553.22019      1425.8122      15930.013     -225.61674     -11.987657      0.44999999     78744.633    
      9800   299.81362      15723.65      -990.78969     -437.40972      1421.4571      15959.05      -221.26288     -7.3943547      0.44999999     78744.633    
      9900   297.38328      15657.245     -969.45845     -465.5478       1404.4478      15949.495     -256.82411     -4.8678213      0.44999999     78744.633    
     10000   303.55283      15525.703     -969.50038     -599.16186      1461.8032      15913.828     -268.81278     -12.454156      0.44999999     78744.633    
     10029   301.08606      15645.183     -978.15363     -526.0922       1451.0807      15994.46      -289.37076     -6.7412035      0.44999999     78744.633    
Loop time of 155.066 on 6 procs for 10000 steps with 2996 atoms

Performance: 5.572 ns/day, 4.307 hours/ns, 64.489 timesteps/s, 193.208 katom-step/s
99.6% CPU use with 6 MPI tasks x no OpenMP threads

MPI task timing breakdown:
Section |  min time  |  avg time  |  max time  |%varavg| %total
---------------------------------------------------------------
Pair    | 3.654      | 10.49      | 16.232     | 153.3 |  6.76
Bond    | 6.2565     | 14.394     | 21.485     | 163.4 |  9.28
Neigh   | 2.893      | 3.138      | 3.4407     |  11.1 |  2.02
Comm    | 71.865     | 92.677     | 107.28     | 129.3 | 59.77
Output  | 1.9066     | 2.0192     | 2.101      |   5.6 |  1.30
Modify  | 0.18605    | 0.33231    | 0.4482     |  18.6 |  0.21
Other   |            | 32.02      |            |       | 20.65

Nlocal:        499.333 ave         724 max         312 min
Histogram: 2 0 0 1 0 1 0 0 1 1
Nghost:        3868.83 ave        4100 max        3724 min
Histogram: 1 2 0 0 1 0 1 0 0 1
Neighs:        76225.8 ave      140172 max       30697 min
Histogram: 2 0 0 1 1 1 0 0 0 1

Total # of neighbors = 457355
Ave neighs/atom = 152.65521
Ave special neighs/atom = 9.2216288
Neighbor list builds = 228
Dangerous builds = 0
unfix Langevin
unfix moveLimit


fix 		relax all npt temp 300.0 300.0 100 iso 1.0 1.0 1000
run 20000
Generated 36 of 36 mixed pair_coeff terms from sixthpower/geometric mixing rule
Per MPI rank memory allocation (min/avg/max) = 26.33 | 26.63 | 27.45 Mbytes
   Step          Temp          PotEng         E_vdwl         E_coul         E_bond        E_angle        E_dihed        E_impro        Density         Volume    
     10029   301.08606      15645.183     -978.15363     -526.0922       1451.0807      15994.46      -289.37076     -6.7412035      0.44999999     78744.633    
     10100   301.51007      15658.12      -949.33242     -516.83884      1450.4792      15994.542     -312.27073     -8.4586185      0.45084587     78596.893    
     10200   305.2745       15709.457     -966.79367     -431.27949      1416.1919      15948.008     -252.46503     -4.2042925      0.45367101     78107.446    
     10300   297.77762      15798.144     -968.2111      -343.67383      1464.935       15948.781     -285.0875      -18.600226      0.45887082     77222.352    
     10400   297.79133      15719.798     -992.84453     -358.26655      1457.3709      15957.407     -335.35446     -8.5139867      0.46509296     76189.251    
     10500   297.74277      15790.893     -1022.0985     -293.03313      1421.5698      15948.737     -253.90946     -10.372574      0.47147141     75158.5      
     10600   304.12096      15665.328     -995.33455     -407.58744      1393.3416      15929.267     -245.22696     -9.1318624      0.47765571     74185.408    
     10700   308.75254      15816.485     -1042.8553     -278.45003      1465.7132      15972.438     -285.53778     -14.822867      0.48195089     73524.264    
     10800   305.89361      15723.934     -1044.864      -354.326        1429.0185      15958.625     -250.22975     -14.289496      0.48665478     72813.594    
     10900   301.39904      15605.614     -1069.13       -457.86877      1401.8074      15929.885     -189.04095     -10.038365      0.49099127     72170.497    
     11000   303.02238      15629.68      -1072.0859     -389.35674      1420.2121      15926.56      -235.55355     -20.095458      0.49634099     71392.62     
     11100   298.64308      15777.862     -1092.455      -247.30703      1379.074       16013.299     -261.51423     -13.234358      0.50079817     70757.215    
     11200   299.39891      15616.818     -1085.5312     -377.79705      1393.9684      15977.861     -278.26446     -13.418371      0.50531203     70125.155    
     11300   298.61183      15544.003     -1104.7934     -384.73679      1434.4649      15908.837     -289.34909     -20.41918       0.50995179     69487.125    
     11400   295.7354       15551.15      -1125.6206     -380.11822      1435.2366      15951.293     -314.20694     -15.434032      0.51428319     68901.891    
     11500   302.18492      15615.966     -1114.3786     -346.8131       1427.6773      15921.023     -259.47283     -12.06908       0.51888557     68290.748    
     11600   306.02638      15516.417     -1128.085      -444.6855       1372.8168      15942.895     -213.2172      -13.307585      0.52289693     67766.861    
     11700   307.42084      15481.542     -1119.3931     -420.74319      1436.5065      15964.952     -358.65635     -21.12402       0.52687167     67255.626    
     11800   302.46523      15624.828     -1128.9269     -263.54665      1434.9187      15901.237     -307.98731     -10.8662        0.5307151      66768.562    
     11900   299.17647      15527.979     -1142.4341     -360.57151      1417.6915      15986.599     -363.75217     -9.5538976      0.53368752     66396.689    
     12000   294.54878      15387.176     -1111.7771     -531.40101      1402.0997      15985.915     -340.39777     -17.263004      0.53660709     66035.438    
     12100   297.39073      15511.524     -1154.504      -415.5738       1429.682       16100.005     -438.55639     -9.5283751      0.53927199     65709.112    
     12200   305.62807      15482.24      -1149.6679     -351.35295      1376.0431      15910.574     -288.63386     -14.722808      0.54245143     65323.976    
     12300   297.45406      15325.707     -1146.7838     -517.36138      1409.5049      15918.93      -325.3373      -13.244564      0.54511792     65004.438    
     12400   294.51151      15289.479     -1159.3172     -570.15691      1348.8872      16000.097     -315.55543     -14.475365      0.54800538     64661.927    
     12500   296.12475      15383.181     -1143.0368     -550.56437      1370.9952      15979.335     -267.84238     -5.7057663      0.5518827      64207.637    
     12600   305.49316      15282.095     -1154.1329     -622.77851      1441.6805      15925.154     -293.7432      -14.084785      0.55581007     63753.944    
     12700   303.6814       15363.219     -1141.1995     -530.36429      1383.4096      15997.077     -333.02864     -12.675651      0.5600864      63267.174    
     12800   291.58584      15407.575     -1186.6479     -528.34556      1408.3192      15960.504     -230.94051     -15.314685      0.56526695     62687.344    
     12900   300.68155      15294.627     -1182.3375     -545.50716      1402.9118      15934.713     -300.75222     -14.400039      0.5709282      62065.745    
     13000   302.23096      15402.155     -1200.9291     -432.67158      1360.4651      16025.08      -334.3417      -15.447913      0.57684449     61429.18     
     13100   302.26141      15456.967     -1219.6886     -364.3629       1397.1145      15919.146     -261.95092     -13.29126       0.5828178      60799.591    
     13200   296.9406       15437.005     -1225.8819     -431.86792      1364.8767      16041.574     -302.35933     -9.3364148      0.58829898     60233.121    
     13300   305.15708      15453.686     -1221.8148     -366.49562      1394.4137      15934.963     -269.4552      -17.925401      0.593514       59703.872    
     13400   309.75603      15439.91      -1255.1136     -387.18504      1352.0961      16016.697     -276.30079     -10.284031      0.59757617     59298.021    
     13500   310.01136      15414.12      -1218.0072     -390.65541      1423.2242      15935.643     -321.16797     -14.916163      0.60192948     58869.162    
     13600   299.21906      15301.9       -1269.0174     -491.89664      1391.4431      16003.826     -325.0402      -7.4153138      0.60505616     58564.951    
     13700   301.01323      15220.712     -1244.761      -533.79642      1369.7627      15933.91      -282.06727     -22.336006      0.60964501     58124.127    
     13800   303.87541      15192.553     -1302.7981     -510.6495       1427.1997      15960.291     -358.57561     -22.91503       0.61475574     57640.916    
     13900   294.29534      15327.339     -1297.2583     -413.88465      1376.0462      15985.087     -309.63294     -13.01847       0.61978556     57173.136    
     14000   296.19179      15349.866     -1272.1321     -321.39128      1350.9801      15920.511     -309.41965     -18.682449      0.62496369     56699.428    
     14100   294.60882      15172.94      -1326.9124     -472.31563      1371.4818      15954.183     -338.27208     -15.224837      0.62867329     56364.863    
     14200   298.64015      15111.575     -1322.0415     -533.47868      1381.1467      15956.302     -364.88705     -5.466968       0.6319436      56073.175    
     14300   301.55476      15124.777     -1328.9119     -572.07699      1427.5553      15971.025     -353.96936     -18.844445      0.63393592     55896.949    
     14400   306.30368      15137.748     -1360.4254     -533.58899      1365.9896      15952.152     -279.07519     -7.3047652      0.63569786     55742.022    
     14500   300.59895      15130.075     -1355.1047     -532.549        1382.1376      15935.256     -284.29732     -15.367898      0.63727042     55604.47     
     14600   296.27932      15157.279     -1360.8552     -489.97242      1380.8019      15947.779     -296.96206     -23.512444      0.63867617     55482.082    
     14700   296.18853      15368.757     -1345.9418     -312.8211       1325.9925      15975.886     -254.8222      -19.536417      0.63921562     55435.26     
     14800   300.97242      15195.246     -1371.4242     -481.72251      1374.2885      15914.338     -210.36352     -29.86955       0.63955963     55405.442    
     14900   298.35141      15259.451     -1376.6192     -474.19259      1374.2483      16038.905     -290.40074     -12.490218      0.64141256     55245.385    
     15000   304.32189      15318.296     -1368.353      -362.03536      1447.0705      15971.415     -344.59106     -25.209744      0.6441989      55006.433    
     15100   300.55501      15230.047     -1358.974      -420.24896      1334.7633      16010.135     -319.41174     -16.216926      0.64666163     54796.948    
     15200   294.97117      15169.376     -1334.9236     -476.73866      1371.0538      15983.307     -360.89337     -12.42954       0.64900923     54598.737    
     15300   299.1709       15082.786     -1369.0277     -559.05782      1381.8177      15925.838     -277.03625     -19.74858       0.64994441     54520.176    
     15400   302.22067      15276.92      -1373.2361     -433.98778      1372.3246      16032.198     -318.79436     -1.5848168      0.65079053     54449.293    
     15500   303.95214      15185.994     -1376.6227     -510.32471      1393.6368      15943.917     -252.41827     -12.194055      0.65232728     54321.022    
     15600   301.54634      15148.943     -1332.1873     -548.07906      1369.0381      15955.778     -281.4367      -14.169585      0.65478306     54117.289    
     15700   296.61716      15042.504     -1373.4509     -635.98151      1311.9386      16030.544     -282.79317     -7.7535171      0.6580107      53851.836    
     15800   295.33905      15196.602     -1392.7731     -506.66974      1366.9818      15947.253     -200.53863     -17.650564      0.66194364     53531.875    
     15900   309.50575      15187.522     -1391.596      -496.57415      1360.3056      15941.743     -210.6222      -15.734636      0.6658207      53220.16     
     16000   304.00157      15324.331     -1403.6849     -404.52313      1362.0675      16042.761     -252.34299     -19.945642      0.66907516     52961.291    
     16100   303.2677       15217.543     -1411.9518     -474.08125      1375.0958      16009.9       -267.28874     -14.131119      0.67178073     52747.991    
     16200   305.85743      15207.756     -1407.4257     -421.68808      1355.2906      15990.538     -287.93111     -21.027633      0.67422835     52556.502    
     16300   300.1266       15142.777     -1393.7367     -530.26316      1334.1353      16008.953     -253.00082     -23.310802      0.6768434      52353.445    
     16400   297.0177       15248.712     -1380.5238     -466.80206      1335.6689      16026.428     -238.99979     -27.059315      0.67913076     52177.115    
     16500   299.57596      15254.208     -1398.7821     -467.66244      1331.8813      15962.12      -152.6182      -20.730861      0.68009862     52102.862    
     16600   305.48397      15178.902     -1400.5295     -484.33803      1374.0964      15948.028     -239.59173     -18.763641      0.68083795     52046.282    
     16700   298.25647      15224.142     -1381.334      -480.00973      1380.1523      15991.754     -274.08492     -12.335991      0.68295047     51885.291    
     16800   295.81345      15410.94      -1410.373      -315.30091      1443.8749      15944.23      -238.70591     -12.785557      0.68666672     51604.488    
     16900   307.50091      15193.171     -1419.7747     -448.03546      1370.8397      15910.656     -199.89654     -20.617881      0.69121925     51264.608    
     17000   300.89753      15284.206     -1413.0011     -400.24502      1374.4287      15938.65      -198.42575     -17.200861      0.69617017     50900.033    
     17100   297.06369      15333.655     -1417.1687     -314.1871       1416.8747      15968.626     -295.86125     -24.629287      0.70053682     50582.757    
     17200   292.61336      15123.726     -1425.3913     -485.30662      1360.7949      15955.093     -262.9854      -18.479011      0.70495274     50265.9      
     17300   295.18572      15012.676     -1432.5024     -638.36847      1370.0943      15964.034     -243.23329     -7.3473642      0.70810546     50042.1      
     17400   303.29845      15071.75      -1411.917      -568.2336       1413.7252      15913.087     -271.03007     -3.880616       0.71157333     49798.218    
     17500   298.78212      15108.306     -1429.4873     -549.8247       1398.5023      16018.85      -317.99909     -11.735434      0.71348152     49665.034    
     17600   300.05061      15166.422     -1417.0535     -475.27632      1372.9836      15921.827     -212.27478     -23.783446      0.71597764     49491.886    
     17700   298.7693       15275.988     -1443.4224     -438.22085      1384.1461      16045.04      -266.9869      -4.5687783      0.71732528     49398.906    
     17800   309.34099      15266.704     -1437.8725     -405.56978      1427.576       15977.528     -271.10983     -23.847474      0.71837742     49326.556    
     17900   304.8597       15205.042     -1422.8893     -458.09864      1391.5552      15973.744     -262.04057     -17.229015      0.72001415     49214.427    
     18000   296.92849      15201.328     -1432.7239     -472.83268      1343.4976      15975.155     -194.9955      -16.772125      0.72322949     48995.629    
     18100   293.8277       15188.27      -1431.5148     -494.14738      1418.9998      15996.437     -282.42712     -19.077876      0.72753747     48705.511    
     18200   302.64704      15168.12      -1428.3228     -423.78634      1397.8048      15924.94      -282.80662     -19.708908      0.73256389     48371.322    
     18300   298.66541      15208.167     -1446.3302     -400.12619      1345.8231      15995.793     -271.86089     -15.131865      0.73751415     48046.65     
     18400   294.70262      15140.959     -1456.3576     -468.27857      1406.3957      15991.159     -308.97771     -22.981523      0.74197966     47757.487    
     18500   300.58829      14933.682     -1448.4003     -598.63427      1348.2566      15964.34      -297.6114      -34.268093      0.74652305     47466.832    
     18600   297.79772      15006.496     -1460.0011     -597.15513      1412.4293      15970.034     -299.80324     -19.007997      0.75187638     47128.87     
     18700   304.3313       14950.139     -1451.154      -653.37133      1387.8599      15999.184     -320.81077     -11.569093      0.75663035     46832.755    
     18800   302.23344      15075.414     -1446.7264     -526.65751      1396.8985      16042.192     -383.33045     -6.9629401      0.76122788     46549.903    
     18900   294.06578      15058.821     -1462.5732     -525.60778      1389.7573      15954.796     -287.74324     -9.8083203      0.76562974     46282.272    
     19000   294.28621      15034.066     -1459.9173     -525.28199      1329.0372      15994.024     -282.43408     -21.36213       0.77005266     46016.443    
     19100   298.42941      15035.004     -1476.9862     -532.80831      1382.1674      16018.719     -341.9913      -14.096527      0.77365125     45802.4      
     19200   301.64806      15084.82      -1479.754      -485.14871      1444.1962      15966.532     -349.04186     -11.963538      0.77720977     45592.69     
     19300   301.53246      15055.792     -1448.1231     -537.4567       1378.0381      15971.834     -290.55839     -17.942569      0.77890497     45493.463    
     19400   306.27922      15081.616     -1498.1013     -504.79266      1440.2349      16009.831     -353.92924     -11.62583       0.77970217     45446.948    
     19500   301.84839      15203.892     -1475.5155     -411.22549      1441.9668      15933.295     -269.0404      -15.588661      0.78271474     45272.028    
     19600   299.37676      15070.708     -1489.5519     -471.91423      1398.4419      15927.512     -279.60411     -14.1758        0.78572658     45098.492    
     19700   295.922        15117.527     -1497.2615     -429.79209      1389.4724      15960.826     -296.37748     -9.3406088      0.78910776     44905.254    
     19800   301.91955      14996.386     -1488.9776     -522.66964      1418.1912      15886.84      -286.0499      -10.947566      0.79567071     44534.86     
     19900   302.06892      15034.756     -1477.55       -507.05884      1364.6562      15959.878     -297.65065     -7.5187799      0.80337353     44107.856    
     20000   302.04119      15092.203     -1501.7739     -506.7917       1393.4936      15947.429     -229.8819      -10.27139       0.80709503     43904.476    
     20100   307.18912      15055.325     -1510.3655     -436.45914      1405.5539      15899.336     -279.6367      -23.103516      0.80884335     43809.576    
     20200   292.12464      14952.378     -1517.8739     -596.42881      1381.8797      15962.565     -262.84143     -14.922287      0.80815499     43846.891    
     20300   293.33823      15004.63      -1515.7828     -537.47692      1398.959       15884.072     -209.39204     -15.748877      0.80762423     43875.707    
     20400   298.31621      15047.412     -1537.6945     -514.7853       1380.8147      16015.957     -275.25752     -21.622675      0.80703283     43907.86     
     20500   296.27904      15047.653     -1477.2933     -559.61306      1390.3863      15991.607     -276.79633     -20.637409      0.80931823     43783.87     
     20600   302.21649      15072.938     -1519.7085     -473.18625      1423.755       15982.609     -321.86488     -18.666338      0.81184396     43647.654    
     20700   305.2199       15036.907     -1551.2545     -438.20696      1393.9757      15980.457     -324.48792     -23.57606       0.81567534     43442.633    
     20800   295.8631       14916.59      -1523.1776     -514.51361      1331.6056      15936.409     -297.01223     -16.720992      0.82119483     43150.642    
     20900   294.74601      14980.44      -1520.6185     -489.73913      1367.2478      15876.206     -231.12553     -21.530802      0.82643899     42876.83     
     21000   299.89268      14889.701     -1515.035      -605.18944      1319.7149      15995.981     -294.13467     -11.636065      0.83126487     42627.91     
     21100   300.60238      14987.059     -1513.8944     -551.15334      1422.7844      15962.43      -314.07745     -19.029851      0.83363092     42506.921    
     21200   301.0347       14968.24      -1530.8392     -568.66267      1362.6752      16037.778     -313.96038     -18.750449      0.83504736     42434.82     
     21300   295.34914      15035.056     -1510.3283     -515.00601      1443.4085      15970.15      -340.41287     -12.75503       0.83572136     42400.596    
     21400   289.69917      14971.446     -1546.0574     -517.98829      1387.6956      15998.604     -322.64649     -28.161076      0.83525703     42424.167    
     21500   291.66867      14850.27      -1556.7249     -611.00723      1409.2684      15934.627     -314.2391      -11.654131      0.83604345     42384.261    
     21600   299.16852      14944.734     -1532.8161     -539.01533      1367.3232      15933.846     -265.32446     -19.279462      0.83735817     42317.715    
     21700   295.8499       15134.108     -1547.4721     -431.65723      1318.1518      15993.972     -189.85283     -9.0341658      0.83844712     42262.754    
     21800   297.31301      15146.715     -1534.0948     -412.20338      1421.3972      15970.421     -290.84348     -7.9611556      0.84023196     42172.978    
     21900   301.21669      15181.968     -1519.391      -365.92298      1408.9335      15970.409     -300.15794     -11.902671      0.84317365     42025.844    
     22000   302.09606      15192.834     -1518.1804     -378.20221      1389.1532      15945.161     -228.884       -16.214176      0.84481258     41944.314    
     22100   302.44162      15001.471     -1511.6127     -552.33966      1402.0964      15992.116     -310.15597     -18.632783      0.84667545     41852.028    
     22200   297.06477      15081.568     -1507.4773     -433.01471      1462.2518      15928.488     -344.16299     -24.517489      0.84940844     41717.367    
     22300   294.00664      15021.687     -1542.5435     -489.0148       1387.3098      15927.721     -260.39928     -1.3867716      0.85202953     41589.033    
     22400   298.4184       14920.858     -1529.2145     -588.28565      1346.4792      15976.757     -272.85585     -12.022308      0.85617436     41387.696    
     22500   304.07889      15105.198     -1538.6026     -431.73345      1360.9721      15995.523     -274.72119     -6.239932       0.8608994      41160.54     
     22600   306.32913      15316.61      -1566.2626     -189.8022       1380.883       15976.665     -284.91602      0.042637887    0.86611421     40912.715    
     22700   297.14336      15083.418     -1546.4732     -451.6007       1439.4242      15911.316     -258.00299     -11.245632      0.87325643     40578.097    
     22800   305.2028       14816.022     -1558.5904     -601.43398      1367.4519      15921.371     -292.94842     -19.827569      0.87955407     40287.556    
     22900   294.98051      14868.104     -1613.4988     -631.67502      1423.9646      15937.882     -231.15944     -17.409225      0.88519854     40030.663    
     23000   303.34355      14854.798     -1610.3875     -582.71684      1336.4583      15971.66      -242.72469     -17.491923      0.8911519      39763.237    
     23100   303.48354      14867.038     -1615.505      -625.95938      1379.1683      15974.663     -234.77235     -10.556667      0.89522095     39582.501    
     23200   307.26176      14693.421     -1595.9472     -763.30455      1425.2869      15913.177     -257.56113     -28.229681      0.89881193     39424.359    
     23300   295.5149       14875.336     -1615.2742     -606.17009      1363.4297      15991.188     -245.83657     -12.001812      0.8994652      39395.726    
     23400   302.21258      14909.774     -1585.714      -474.03805      1324.3903      15888.597     -223.40402     -20.057472      0.90028105     39360.024    
     23500   296.05225      14983.395     -1601.0845     -472.05721      1399.4298      15963.785     -295.33547     -11.342154      0.90238039     39268.455    
     23600   307.18688      14969.144     -1599.7363     -488.61342      1352.7085      15944.451     -232.55637     -7.1098894      0.90437448     39181.871    
     23700   307.06694      15023.545     -1603.9873     -508.19924      1419.2068      15981.037     -239.69121     -24.820981      0.90506611     39151.929    
     23800   307.48969      14831.607     -1615.1655     -613.65626      1336.2133      15969.745     -234.34966     -11.179453      0.90424652     39187.416    
     23900   297.7986       14933.1       -1608.8814     -529.21253      1370.832       15928.951     -214.4878      -14.101776      0.90558769     39129.379    
[...]
    222100   500.68054      2480.7473     -1604.4003     -901.10739      1909.2758      3290.2424     -335.16613      121.90283      0.99395753     35650.501      119          
    222200   507.68344      2683.6918     -1561.9823     -793.09025      1912.6017      3355.1121     -346.69722      117.74784      0.99209056     35717.59       119          
    222300   507.56266      2686.8845     -1526.5164     -797.12632      1923.2043      3331.8843     -363.85907      119.29761      0.9893806      35815.423      119          
    222400   492.7371       2682.6978     -1530.8289     -852.79324      1920.1331      3360.4039     -335.28573      121.06859      0.98362863     36024.86       119          
    222500   501.27295      2592.0746     -1496.1129     -819.20688      1971.7601      3241.1665     -430.46158      124.92936      0.9770725      36266.586      119          
    222600   497.15431      2590.0287     -1543.5222     -874.71872      2001.029       3281.2052     -396.37047      122.40588      0.97043408     36514.674      119          
    222700   501.2576       2607.2216     -1513.7575     -881.87984      1962.3714      3254.9244     -337.33548      122.89874      0.96598761     36682.752      119          
    222800   507.28427      2688.0783     -1548.9801     -804.33027      1911.4812      3311.3788     -309.62593      128.15451      0.96399351     36758.634      119          
    222900   507.93987      2927.555      -1491.6634     -635.58126      2007.8041      3263.4065     -341.16761      124.75674      0.96402118     36757.578      119          
    223000   508.7217       2872.998      -1539.484      -665.65067      1957.9991      3318.6977     -327.81928      129.25522      0.96226624     36824.615      119          
    223100   497.78098      2665.617      -1528.7467     -794.16919      1936.6505      3231.6231     -305.3634       125.62275      0.96329815     36785.168      119          
    223200   491.18095      2577.203      -1549.5542     -884.95549      1886.345       3330.3465     -330.32966      125.3508       0.96733141     36631.793      119          
    223300   493.28696      233037.63     -377.24361     -764.97487      231123.67      3252.8739     -316.14429      119.44002      0.97453639     36360.966      120          
    223400   504.60389      2878.8072     -1583.3055     -610.25139      1938.0507      3398.4147     -391.82465      127.72342      1.0475538      33826.505      120          
    223500   513.23297      2389.4611     -1585.9356     -818.06766      1929.2478      3136.7578     -397.4508       124.90954      1.046318       33866.457      120          
    223600   500.89583      2401.8175     -1539.5404     -793.45048      1881.1799      3192.9178     -461.49706      122.20769      1.0423437      33995.585      120          
    223700   494.88708      2280.3629     -1590.4158     -896.55816      1872.5473      3137.9302     -350.89594      107.75524      1.0376398      34149.695      120          
    223800   494.2605       2503.1892     -1627.4161     -720.98728      1890.1016      3179.3072     -336.83838      119.02228      1.0343516      34258.258      120          
    223900   498.20104      2589.2151     -1585.1083     -690.63875      1782.3079      3236.6447     -275.36132      121.3708       1.0312691      34360.659      120          
    224000   503.79526      2582.1406     -1584.3542     -706.25765      1921.1087      3185.9114     -354.07521      119.80764      1.028019       34469.288      120          
    224100   502.01191      2699.606      -1581.2982     -611.80628      1958.6507      3174.9461     -359.13667      118.25028      1.0256845      34547.743      120          
    224200   496.96856      2516.5493     -1586.2169     -746.38163      1931.4299      3155.2628     -364.94295      127.3981       1.0217108      34682.107      120          
    224300   501.59095      2438.6065     -1575.2239     -706.7086       1882.8241      3088.1541     -370.2845       119.84532      1.019127       34770.036      120          
    224400   495.75025      2416.3149     -1603.7872     -749.85717      1885.2562      3117.0142     -356.42904      124.11782      1.0163543      34864.893      120          
    224500   507.34987      2440.473      -1603.8414     -746.1402       1890.6138      3136.5046     -347.71949      111.05568      1.0144774      34929.396      120          
    224600   504.42106      2584.3802     -1568.511      -724.3867       1889.2167      3101.1888     -237.45823      124.33061      1.0126322      34993.045      120          
    224700   503.39179      2690.4287     -1555.838      -593.69123      1856.1762      3177.0779     -313.38216      120.08594      1.0088358      35124.73       120          
    224800   497.08134      2535.8195     -1555.8441     -753.55121      1934.1194      3173.672      -371.59243      109.01594      1.0073989      35174.83       120          
    224900   497.7019       2555.5638     -1563.2003     -711.16484      1853.9335      3220.0243     -362.43331      118.40447      1.0054871      35241.708      120          
    225000   500.61903      2566.795      -1526.4494     -704.54741      1838.3048      3191.4339     -340.99955      109.05254      1.002858       35334.098      120          
    225100   508.89566      2512.888      -1569.7922     -681.36291      1881.9444      3249.9026     -470.8851       103.08131      0.99861608     35484.191      120          
    225200   502.95353      2560.1009     -1564.7651     -701.3881       1893.1442      3225.1056     -402.1509       110.15515      0.99738307     35528.059      120          
    225300   501.8886       2535.6594     -1490.7514     -744.76827      1886.3233      3112.3742     -349.32241      121.80395      0.99664698     35554.298      120          
    225400   511.83389      2557.8753     -1546.7892     -742.04512      1955.289       3149.445      -382.46197      124.43767      0.99289069     35688.807      120          
    225500   506.46208      2710.8275     -1542.4146     -692.78348      1925.1658      3222.6321     -320.8638       119.0914       0.99144396     35740.885      120          
    225600   505.29521      2691.7278     -1527.2733     -586.61454      1836.1555      3105.1745     -254.66691      118.95249      0.98986037     35798.063      120          
    225700   493.95732      2573.5704     -1531.2078     -691.20089      1863.7386      3150.0436     -340.77966      122.97655      0.98888535     35833.359      120          
    225800   486.86264      2678.514      -1539.2286     -638.29347      1923.0865      3167.6792     -353.15421      118.42454      0.98678804     35909.519      120          
    225900   493.30819      2598.1207     -1552.6201     -708.16641      1945.9963      3221.8482     -431.30159      122.36429      0.98628912     35927.684      120          
    226000   513.39798      2636.7183     -1553.446      -629.63785      1858.656       3181.308      -337.89645      117.73459      0.98695859     35903.314      120          
    226100   511.08654      2608.5149     -1526.2587     -731.5503       1949.3444      3136.8538     -334.39436      114.52005      0.98835641     35852.536      120          
    226200   497.06231      2483.9001     -1504.6415     -792.39117      1917.966       3143.8875     -402.38143      121.46077      0.98829693     35854.694      120          
    226300   489.91818      2556.7769     -1536.8761     -706.25115      1918.3416      3101.1439     -340.16289      120.5815       0.98725861     35892.403      120          
    226400   497.3156       2570.1341     -1544.4714     -700.14591      1844.597       3170.6461     -319.06545      118.57368      0.9875179      35882.979      120          
    226500   507.22266      2620.3806     -1512.0383     -646.50833      1871.1362      3113.2511     -328.06493      122.60489      0.98733154     35889.752      120          
    226600   508.31841      2611.6358     -1533.4126     -724.02063      1935.6678      3093.8104     -288.85301      128.44384      0.98563079     35951.681      120          
    226700   507.3517       2510.5958     -1536.1321     -790.5002       1870.0183      3206.7226     -358.99352      119.4807       0.98446882     35994.115      120          
    226800   486.07354      2518.6301     -1527.6188     -778.9603       1884.3092      3170.1265     -357.46404      128.23759      0.98291307     36051.086      120          
    226900   490.07055      2487.656      -1516.1458     -752.48595      1857.5675      3151.677      -381.23341      128.27668      0.98381876     36017.898      120          
    227000   500.56978      2480.2657     -1512.6284     -753.31191      1870.9402      3146.3689     -386.25098      115.14789      0.98262163     36061.779      120          
    227100   502.44406      2320.2067     -1490.4087     -987.77248      1938.6496      3128.6        -389.19741      120.33565      0.9825455      36064.573      120          
    227200   505.13794      2604.4949     -1504.5464     -731.77535      1890.1512      3224.5278     -398.86788      125.00549      0.98130672     36110.1        120          
    227300   493.61138      2414.2853     -1495.837      -839.70969      1828.611       3176.4488     -372.10538      116.8775       0.97992082     36161.171      120          
    227400   487.83544      2487.9996     -1513.3954     -738.29782      1848.0073      3151.3891     -377.46201      117.75841      0.97835042     36219.215      120          
    227500   492.59296      2726.1968     -1505.8662     -571.52477      1871.6482      3187.739      -367.86513      112.06569      0.97609453     36302.923      120          
    227600   500.4073       2707.4615     -1548.1563     -641.71653      1913.5769      3279.9412     -413.77767      117.59392      0.97338445     36403.997      120          
    227700   505.98268      2584.772      -1511.8721     -735.38598      1893.113       3186.6694     -375.25766      127.50533      0.97323006     36409.771      120          
    227800   498.66273      2619.6414     -1521.7143     -721.21013      1870.8868      3213.997      -348.2971       125.97919      0.9736594      36393.716      120          
    227900   491.24617      2635.1353     -1486.5957     -687.15403      1835.8437      3144.3926     -302.91914      131.5678       0.97413987     36375.766      120          
    228000   485.17628      2515.0577     -1521.1072     -785.8674       1876.2717      3223.5136     -408.74108      130.98807      0.97363783     36394.523      120          
    228100   491.1947       2560.1593     -1522.7687     -770.36061      1887.3105      3189.0963     -359.77749      136.65922      0.97341149     36402.985      120          
    228200   501.65344      2573.8701     -1508.1829     -819.46489      1956.9516      3202.0835     -383.51221      125.99504      0.97367153     36393.263      120          
    228300   503.62148      2453.9111     -1546.7073     -942.5294       1919.787       3233.3634     -337.79223      127.78956      0.97469431     36355.074      120          
    228400   504.84132      2661.0541     -1520.4306     -650.31769      1911.1097      3160.5282     -370.5244       130.68889      0.97682481     36275.782      120          
    228500   497.20289      2539.749      -1523.3137     -753.219        1907.2621      3205.7699     -417.61032      120.86011      0.97698666     36269.773      120          
    228600   487.9697       2276.2103     -1547.8798     -953.66586      1839.1656      3201.7028     -376.66897      113.55658      0.97642909     36290.484      120          
    228700   495.11119      2398.44       -1558.1805     -796.10002      1926.5925      3094.5462     -385.68539      117.2672       0.97751418     36250.199      120          
    228800   503.95185      2460.7347     -1529.3203     -882.79029      1905.2319      3200.4034     -357.34121      124.55115      0.97965753     36170.889      120          
    228900   505.15464      2344.5932     -1553.5488     -979.58877      1889.8092      3210.399      -341.64171      119.16421      0.98131627     36109.749      120          
    229000   499.01059      2474.9161     -1546.2071     -804.06246      1902.6972      3208.3221     -412.17369      126.34006      0.98397613     36012.138      120          
    229100   496.99209      2459.8102     -1551.8497     -734.94537      1893.3015      3188.9666     -452.65687      116.99406      0.98474722     35983.939      120          
    229200   497.22018      2553.2684     -1555.0051     -651.7459       1880.3285      3222.2702     -450.9162       108.33693      0.98606135     35935.983      120          
    229300   504.87196      2603.4974     -1570.7946     -714.60406      1891.901       3220.4624     -344.0666       120.59917      0.98616998     35932.025      120          
    229400   503.28166      2574.1886     -1560.3875     -810.79066      1963.4842      3257.1749     -394.17635      118.88401      0.98708628     35898.67       120          
    229500   503.41578      2383.7289     -1527.3778     -925.21425      1903.7599      3225.4452     -417.58489      124.70064      0.98797708     35866.302      120          
    229600   491.16988      2496.1606     -1545.638      -829.03263      1898.3128      3153.7699     -302.51287      121.26143      0.98902716     35828.222      120          
    229700   493.3827       2584.486      -1559.1951     -691.13572      1903.0391      3206.9534     -402.84624      127.67054      0.98864769     35841.973      120          
    229800   501.22293      2414.4265     -1567.6653     -821.38992      1882.6703      3211.0394     -406.43075      116.20271      0.98863645     35842.381      120          
    229900   495.76555      2581.1861     -1545.0242     -720.3256       1949.1983      3185.4175     -411.7955       123.71564      0.98823067     35857.098      120          
    230000   498.09825      2484.1827     -1531.801      -785.16766      1875.5793      3144.4936     -337.88154      118.95991      0.98828909     35854.978      120          
    230029   498.58502      2576.7751     -1575.1543     -699.01673      1884.0835      3228.3292     -381.7378       120.2712       0.9882997      35854.594      120          
Loop time of 4106.06 on 6 procs for 200000 steps with 2996 atoms

Performance: 4.208 ns/day, 5.703 hours/ns, 48.708 timesteps/s, 145.930 katom-step/s
97.9% CPU use with 6 MPI tasks x no OpenMP threads

MPI task timing breakdown:
Section |  min time  |  avg time  |  max time  |%varavg| %total
---------------------------------------------------------------
Pair    | 366.86     | 404.51     | 439.73     | 130.0 |  9.85
Bond    | 283.24     | 302.02     | 324.55     |  85.3 |  7.36
Neigh   | 112.99     | 114.14     | 115.84     |   9.5 |  2.78
Comm    | 930.65     | 989.1      | 1031.5     | 122.1 | 24.09
Output  | 33.217     | 33.392     | 33.576     |   1.9 |  0.81
Modify  | 2130.5     | 2146.8     | 2170.6     |  28.8 | 52.28
Other   |            | 116.1      |            |       |  2.83

Nlocal:        499.333 ave         526 max         469 min
Histogram: 1 0 1 0 0 1 1 1 0 1
Nghost:        6173.17 ave        6312 max        6064 min
Histogram: 2 0 1 0 0 0 2 0 0 1
Neighs:         148754 ave      157711 max      139151 min
Histogram: 2 0 0 0 1 0 0 1 1 1

Total # of neighbors = 892523
Ave neighs/atom = 297.90487
Ave special neighs/atom = 10.343124
Neighbor list builds = 9638
Dangerous builds = 0

write_data reaxed.data nocoeff nofix
System init for write_data ...
Generated 36 of 36 mixed pair_coeff terms from sixthpower/geometric mixing rule
unfix reacted
unfix npt
unfix fxrct


thermo_style custom step temp pe evdwl ecoul ebond eangle edihed eimp density vol
fix 		relax all npt temp 600.0 600.0 100 iso 1.0 1.0 1000
run 1000
Generated 36 of 36 mixed pair_coeff terms from sixthpower/geometric mixing rule
Neighbor list info ...
  update: every = 1 steps, delay = 0 steps, check = yes
  max neighbors/atom: 2000, page size: 100000
  master list distance cutoff = 12
  ghost atom cutoff = 12
  binsize = 6, bins = 6 6 6
  1 neighbor lists, perpetual/occasional/extra = 1 0 0
  (1) pair lj/class2/coul/cut, perpetual
      attributes: half, newton on
      pair build: half/bin/newton
      stencil: half/bin/3d
      bin: standard
WARNING: Inconsistent image flags (../domain.cpp:815)
Per MPI rank memory allocation (min/avg/max) = 30.65 | 30.77 | 31.3 Mbytes
   Step          Temp          PotEng         E_vdwl         E_coul         E_bond        E_angle        E_dihed        E_impro        Density         Volume    
    230029   498.58502      2576.7751     -1575.1543     -699.01673      1884.0835      3228.3292     -381.7378       120.2712       0.9882997      35854.594    
    230100   500.78358      2803.9546     -1563.3273     -683.64427      2004.5402      3272.1366     -354.40201      128.65153      0.98928506     35818.881    
    230200   539.94997      2869.284      -1488.1379     -723.81264      1926.2743      3357.3202     -333.74289      131.3829       0.99079736     35764.209    
    230300   554.94325      3070.2198     -1575.1364     -875.12479      2106.5835      3527.628      -251.57751      137.84695      0.98916942     35823.069    
    230400   591.47059      3322.3399     -1492.7891     -725.96354      2181.3839      3580.2724     -362.88469      142.32104      0.99073354     35766.513    
    230500   605.45641      3561.1973     -1475.8295     -696.0771       2266.9482      3592.1706     -269.85104      143.83617      0.98969972     35803.874    
    230600   621.65861      3516.1935     -1517.6172     -705.42143      2263.9446      3535.8043     -199.31671      138.79996      0.98623313     35929.724    
    230700   610.0073       3253.0079     -1480.4977     -948.51932      2216.1454      3513.9521     -182.23171      134.15909      0.98037834     36144.295    
    230800   600.04515      3379.5501     -1481.2593     -768.09094      2245.7143      3470.9643     -231.71356      143.93527      0.97352935     36398.578    
    230900   601.31519      3357.7299     -1503.3343     -740.45289      2210.3668      3487.3274     -235.26157      139.08436      0.96423949     36749.256    
    231000   589.26291      3593.7702     -1485.7073     -689.66393      2264.9732      3544.0503     -180.30896      140.42684      0.95656092     37044.252    
    231029   595.10714      3597.2775     -1474.901      -676.71881      2181.1433      3671.5536     -241.06182      137.26216      0.95479463     37112.781    
Loop time of 4.27428 on 6 procs for 1000 steps with 2996 atoms

Performance: 20.214 ns/day, 1.187 hours/ns, 233.957 timesteps/s, 700.936 katom-step/s
99.0% CPU use with 6 MPI tasks x no OpenMP threads

MPI task timing breakdown:
Section |  min time  |  avg time  |  max time  |%varavg| %total
---------------------------------------------------------------
Pair    | 1.618      | 1.7697     | 1.9712     |   8.3 | 41.40
Bond    | 1.225      | 1.3152     | 1.4681     |   7.1 | 30.77
Neigh   | 0.24418    | 0.24521    | 0.24686    |   0.2 |  5.74
Comm    | 0.45846    | 0.81816    | 1.0402     |  21.2 | 19.14
Output  | 0.0201     | 0.020243   | 0.02094    |   0.2 |  0.47
Modify  | 0.07129    | 0.082157   | 0.088863   |   2.3 |  1.92
Other   |            | 0.02365    |            |       |  0.55

Nlocal:        499.333 ave         520 max         477 min
Histogram: 1 0 1 0 1 1 0 0 1 1
Nghost:           6050 ave        6123 max        5976 min
Histogram: 2 0 1 0 0 0 0 0 2 1
Neighs:         143500 ave      158764 max      130404 min
Histogram: 1 1 0 0 2 0 1 0 0 1

Total # of neighbors = 860998
Ave neighs/atom = 287.38251
Ave special neighs/atom = 10.343124
Neighbor list builds = 55
Dangerous builds = 0
Total wall time: 1:18:26
