LAMMPS (22 Dec 2022)
Reading data file ...
  orthogonal box = (6.2373795 6.2373795 6.2373795) to (43.750415 43.750415 43.750415)
  2 by 3 by 4 MPI processor grid
  reading atoms ...
  4952 atoms
  reading velocities ...
  4952 velocities
  scanning bonds ...
  4 = max bonds/atom
  scanning angles ...
  6 = max angles/atom
  scanning dihedrals ...
  14 = max dihedrals/atom
  scanning impropers ...
  4 = max impropers/atom
  reading bonds ...
  5206 bonds
  reading angles ...
  10140 angles
  reading dihedrals ...
  13656 dihedrals
  reading impropers ...
  6240 impropers
Finding 1-2 1-3 1-4 neighbors ...
  special bond factors lj:    0        0        1       
  special bond factors coul:  0        0        1       
     4 = max # of 1-2 neighbors
     7 = max # of 1-3 neighbors
    11 = max # of special neighbors
  special bonds CPU = 0.004 seconds
  read_data CPU = 0.401 seconds
PPPM initialization ...
  using 12-bit tables for long-range coulomb (../kspace.cpp:342)
  G vector (1/distance) = 0.11754689
  grid = 4 4 4
  stencil order = 5
  estimated absolute RMS force accuracy = 0.31898348
  estimated relative force accuracy = 0.00096060929
  using double precision KISS FFT
  3d grid and FFT values/proc = 294 4
Generated 28 of 28 mixed pair_coeff terms from sixthpower/sixthpower mixing rule
Neighbor list info ...
  update: every = 1 steps, delay = 0 steps, check = yes
  max neighbors/atom: 2000, page size: 100000
  master list distance cutoff = 12
  ghost atom cutoff = 12
  binsize = 6, bins = 7 7 7
  1 neighbor lists, perpetual/occasional/extra = 1 0 0
  (1) pair lj/class2/coul/long, perpetual
      attributes: half, newton on
      pair build: half/bin/newton
      stencil: half/bin/3d
      bin: standard
Setting up cg style minimization ...
  Unit style    : real
  Current step  : 0
WARNING: Inconsistent image flags (../domain.cpp:815)
  PPPM/cg optimization cutoff: 1e-05
  Total charged atoms: 100.0%
  Min/max charged atoms/proc: 100.0% 100.0%
Per MPI rank memory allocation (min/avg/max) = 16.18 | 16.18 | 16.19 Mbytes
   Step          Temp          E_pair         E_mol          TotEng         Press     
         0   597.55872      1426.548       17347.804      27593.118     -355.54838    
        88   597.55872      494.62178      9334.0234      18647.411      3951.272     
Loop time of 0.943293 on 24 procs for 88 steps with 4952 atoms

99.2% CPU use with 24 MPI tasks x no OpenMP threads

Minimization stats:
  Stopping criterion = linesearch alpha is zero
  Energy initial, next-to-last, final = 
      18774.3523790024   9828.64516675834   9828.64516675834
  Force two-norm initial, final = 3352.2971 58.542435
  Force max component initial, final = 152.38253 5.6737114
  Final line search alpha, max atom move = 2.4979053e-12 1.4172394e-11
  Iterations, force evaluations = 88 236

MPI task timing breakdown:
Section |  min time  |  avg time  |  max time  |%varavg| %total
---------------------------------------------------------------
Pair    | 0.4991     | 0.59053    | 0.69241    |   6.1 | 62.60
Bond    | 0.11875    | 0.14402    | 0.15837    |   2.9 | 15.27
Kspace  | 0.048523   | 0.16552    | 0.26391    |  13.4 | 17.55
Neigh   | 0.0054534  | 0.0054724  | 0.0054909  |   0.0 |  0.58
Comm    | 0.030904   | 0.031819   | 0.033049   |   0.4 |  3.37
Output  | 0          | 0          | 0          |   0.0 |  0.00
Modify  | 0          | 0          | 0          |   0.0 |  0.00
Other   |            | 0.005938   |            |       |  0.63

Nlocal:        206.333 ave         223 max         182 min
Histogram: 1 2 0 1 4 5 2 3 1 5
Nghost:        4674.75 ave        4720 max        4628 min
Histogram: 1 4 3 1 2 3 3 2 3 2
Neighs:          70042 ave       81092 max       59395 min
Histogram: 1 2 3 5 3 1 4 2 0 3

Total # of neighbors = 1681008
Ave neighs/atom = 339.46042
Ave special neighs/atom = 6.0500808
Neighbor list builds = 2
Dangerous builds = 0
PPPM initialization ...
  using 12-bit tables for long-range coulomb (../kspace.cpp:342)
  G vector (1/distance) = 0.11754689
  grid = 4 4 4
  stencil order = 5
  estimated absolute RMS force accuracy = 0.31898348
  estimated relative force accuracy = 0.00096060929
  using double precision KISS FFT
  3d grid and FFT values/proc = 294 4
Generated 28 of 28 mixed pair_coeff terms from sixthpower/sixthpower mixing rule
Setting up Verlet run ...
  Unit style    : real
  Current step  : 88
  Time step     : 0.25
WARNING: Inconsistent image flags (../domain.cpp:815)
Per MPI rank memory allocation (min/avg/max) = 15.05 | 15.06 | 15.06 Mbytes
   Step          Temp          PotEng         E_vdwl         E_coul         E_bond        E_angle        E_dihed        E_impro        Density         Volume    
        88   597.55872      9828.6452     -2021.529       4035.0038      412.54933      16228.133     -7246.7777     -59.881107      1.0647749      52789.389    
     20000   593.47157      18806.871     -1116.7239      4093.8258      3808.1616      20435.275     -6808.4501     -85.48922       1.0470781      53681.592    
     40000   609.87166      18643.57      -1251.3301      4047.3477      3812.3406      20393.259     -6747.745      -90.250229      1.0508991      53486.406    
     60000   600.55625      18539.423     -1179.6913      4065.8465      3760.9727      20234.695     -6754.0714     -70.780734      1.0471144      53679.729    
     80000   604.11154      18383.677     -1196.8473      4034.7064      3658.4752      20338.521     -6847.0218     -84.933184      1.0565833      53198.66     
    100000   612.51003      18712.095     -1244.9652      4064.7026      3874.5936      20353.172     -6728.6334     -88.208997      1.0444193      53818.247    
    120000   602.03009      18860.867     -1224.9929      4085.1318      3842.9677      20526.351     -6761.4727     -89.575585      1.0430192      53890.492    
    140000   606.42527      18731.745     -1243.2047      4085.0243      3821.3648      20420.006     -6739.9698     -96.019573      1.0525751      53401.241    
    160000   599.44567      18555.633     -1231.5519      4079.1856      3701.2824      20313.788     -6703.7981     -85.571023      1.0635112      52852.115    
    180000   603.90359      18506.277     -1279.9601      4108.6813      3796.0173      20288.699     -6800.878      -86.534043      1.0629456      52880.239    
    200000   591.78563      18675.734     -1325.0285      4068.6247      3804.2127      20440.87      -6702.5123     -93.13302       1.067254       52666.764    
    220000   600.90976      18599.081     -1270.1505      4108.3477      3850.7652      20323.061     -6808.2912     -87.069349      1.0580863      53123.091    
    240000   596.75217      18479.045     -1221.0005      4107.029       3664.4761      20466.985     -6930.0223     -88.522197      1.0598182      53036.282    
    260000   591.21277      18500.866     -1211.8163      4058.9048      3605.7954      20374.497     -6716.1235     -91.839121      1.0635306      52851.153    
    280000   600.26101      18409.063     -1222.9555      4088.748       3701.6928      20334.446     -6889.8961     -83.166535      1.0597956      53037.412    
    300000   590.0937       18825.626     -1146.1336      4066.4314      3937.7308      20350.634     -6765.7793     -98.511486      1.041964       53945.066    
    320000   596.20061      18671.3       -1240.7316      4124.3165      3793.637       20382.587     -6780.9748     -88.080949      1.0526769      53396.079    
    340000   595.53948      18592.019     -1269.4143      4045.305       3904.9031      20370.223     -6849.0392     -90.082142      1.0561969      53218.124    
    360000   593.73748      18537.127     -1245.9992      4083.026       3800.4967      20295.757     -6786.3654     -91.063254      1.0665004      52703.979    
    380000   603.10359      18592.332     -1209.3676      4040.249       3789.8172      20445.835     -6864.4144     -93.360253      1.0542392      53316.949    
    400000   613.12715      18542.037     -1216.5193      4091.4334      3723.8679      20247.009     -6700.1532     -85.811069      1.0578595      53134.48     
    420000   595.23751      18376.305     -1309.2178      4082.4281      3725.3537      20240.207     -6770.1593     -74.824281      1.0654415      52756.363    
    440000   593.71144      18527.596     -1187.5314      4096.284       3719.0444      20363.23      -6869.3739     -74.152178      1.0555237      53252.067    
    460000   595.31103      18797.548     -1269.808       4100.1522      3830.0738      20383.623     -6636.4178     -90.99393       1.0657853      52739.342    
    480000   613.09663      18573.411     -1248.66        4067.4532      3835.5536      20431.635     -6916.0666     -78.034668      1.0596121      53046.598    
    500000   610.08606      18779.153     -1250.2531      4101.0133      3958.9718      20407.504     -6827.9364     -91.303095      1.072899       52389.663    
    520000   596.2762       18572.179     -1228.8754      4103.949       3771.5471      20186.977     -6661.7715     -80.479356      1.0629762      52878.715    
    540000   602.54683      18696.266     -1268.6334      4083.928       3938.7029      20297.194     -6735.6978     -99.387179      1.063069       52874.1      
    560000   607.4752       18578.591     -1253.7041      4051.9663      3822.2179      20299.791     -6735.3467     -88.363068      1.0543469      53311.5      
    580000   590.31479      18598.91      -1187.4114      4091.0523      3835.837       20177.286     -6705.4191     -93.687667      1.0743452      52319.14     
    600000   601.95377      18437.587     -1322.092       4056.0127      3733.5294      20301.741     -6732.4195     -80.391973      1.0749051      52291.89     
    620000   600.62031      18721.371     -1188.7109      4103.9006      3764.007       20361.846     -6709.1427     -91.109045      1.0578285      53136.038    
    640000   592.46151      18675.834     -1216.0307      4047.2118      3805.2099      20537.601     -6892.9731     -85.888559      1.0523445      53412.945    
    660000   601.96423      18566.408     -1345.2473      4032.39        3830.4005      20384.108     -6720.0097     -95.330391      1.0606811      52993.134    
    680000   610.59438      18467.677     -1325.6738      4039.2188      3828.0296      20367.775     -6840.3333     -84.171752      1.0492189      53572.062    
    700000   605.09487      18347.724     -1321.6242      4042.4483      3741.4887      20230.902     -6739.3629     -86.278194      1.0666219      52697.978    
    720000   597.0564       18601.841     -1231.0781      4052.67        3820.8684      20276.624     -6707.5214     -89.980678      1.0562747      53214.205    
    740000   596.30264      18639.555     -1181.2456      4056.6705      3753.7437      20411.256     -6796.2468     -87.78812       1.0623157      52911.593    
    760000   591.34712      18830.996     -1213.2953      4093.4251      3914.7345      20422.99      -6770.8389     -97.281795      1.0566653      53194.531    
    780000   602.2474       18696.022     -1182.8567      4069.5552      3805.2174      20405.774     -6809.19       -73.454453      1.0491472      53575.718    
    800000   581.83424      18592.101     -1162.8407      4062.9656      3766.0496      20248.068     -6716.6383     -86.658195      1.0531961      53369.755    
    820000   609.15138      18631.736     -1250.0209      4081.6611      3839.5194      20316.302     -6752.3632     -84.852198      1.0609241      52980.999    
    840000   597.48569      18480.082     -1268.1133      4067.0364      3820.0189      20353.241     -6889.912      -82.453833      1.0534466      53357.065    
    860000   597.9511       18700.304     -1200.0344      4091.7664      3868.4617      20328.77      -6779.3224     -91.662375      1.0507667      53493.144    
    880000   602.28534      18632.666     -1175.8544      4086.8496      3797.7799      20281.73      -6764.6903     -75.050572      1.0463197      53720.498    
    900000   609.03341      18720.394     -1249.3395      4080.2433      3711.4922      20530.094     -6741.4162     -91.359568      1.064612       52797.465    
    920000   601.62822      18473.14      -1303.7564      4041.4297      3785.5411      20318.492     -6761.2903     -89.793884      1.0758232      52247.262    
    940000   594.73363      18693.69      -1236.6581      4051.5122      3807.0003      20412.407     -6742.1841     -80.264481      1.0646348      52796.338    
    960000   588.7319       18680.464     -1298.0391      4077.9744      3863.645       20597.728     -6955.2688     -87.735945      1.0651319      52771.696    
    980000   600.49474      18791.201     -1318.4608      4068.8319      3962.6219      20514.796     -6839.6193     -79.095517      1.0556837      53243.994    
   1000000   599.41737      18631.616     -1278.8611      4094.2993      3783.1568      20392.193     -6742.1788     -97.515532      1.0669309      52682.715    
   1020000   608.61076      18549.514     -1268.731       4029.77        3885.0618      20203.485     -6685.3464     -97.310009      1.061181       52968.173    
   1040000   595.61926      18487.874     -1287.9056      4074.4801      3707.839       20397.584     -6798.201      -87.225463      1.0523472      53412.808    
   1060000   614.22705      18653.928     -1213.3449      4049.6157      3894.5246      20173.461     -6633.7847     -98.574322      1.070236       52520.021    
   1080000   609.02353      18701.406     -1223.3003      4042.4555      3801.1882      20368.568     -6680.6059     -87.729289      1.0514199      53459.914    
   1100000   603.0176       18661.475     -1341.6652      4064.8571      3948.3892      20490.513     -6901.7277     -80.127495      1.0705672      52503.771    
   1120000   601.21553      18635.044     -1261.4894      4054.482       3886.9093      20442.024     -6877.3001     -90.875781      1.0624367      52905.566    
   1140000   611.05483      18661.783     -1272.3353      4061.89        3872.2444      20391.019     -6783.1186     -88.256165      1.0473919      53665.505    
   1160000   606.80015      18587.709     -1221.3304      4050.2126      3831.2816      20312.44      -6774.9862     -91.221105      1.0621251      52921.087    
   1180000   604.54721      18515.031     -1299.23        4082.4158      3702.4874      20473.241     -6836.4724     -88.75903       1.070127       52525.371    
   1200000   601.83738      18685.423     -1349.2338      4073.1495      3804.6076      20597.594     -6833.5053     -87.993096      1.084268       51840.338    
   1200088   594.72487      18590.196     -1386.2539      4057.7208      3843.5683      20538.099     -6842.2631     -102.37625      1.0793572      52076.196    
Loop time of 3787.73 on 24 procs for 1200000 steps with 4952 atoms

Performance: 6.843 ns/day, 3.507 hours/ns, 316.812 timesteps/s, 1.569 Matom-step/s
99.5% CPU use with 24 MPI tasks x no OpenMP threads

MPI task timing breakdown:
Section |  min time  |  avg time  |  max time  |%varavg| %total
---------------------------------------------------------------
Pair    | 1801.7     | 2073.6     | 2321.6     | 322.7 | 54.74
Bond    | 597.35     | 652.08     | 714.65     | 129.4 | 17.22
Kspace  | 558.57     | 839.62     | 1142.1     | 578.2 | 22.17
Neigh   | 47.829     | 47.86      | 47.887     |   0.2 |  1.26
Comm    | 126.83     | 128.59     | 130.34     |   9.8 |  3.39
Output  | 0.0031377  | 0.0035634  | 0.012545   |   3.1 |  0.00
Modify  | 31.937     | 33.573     | 35.002     |  16.2 |  0.89
Other   |            | 12.43      |            |       |  0.33

Nlocal:        206.333 ave         227 max         185 min
Histogram: 1 1 2 5 1 6 2 4 0 2
Nghost:        4713.79 ave        4756 max        4667 min
Histogram: 1 1 3 3 4 0 5 5 1 1
Neighs:          71360 ave       79933 max       56850 min
Histogram: 1 0 3 1 1 0 6 7 4 1

Total # of neighbors = 1712639
Ave neighs/atom = 345.84794
Ave special neighs/atom = 6.0500808
Neighbor list builds = 16450
Dangerous builds = 0
PPPM initialization ...
  using 12-bit tables for long-range coulomb (../kspace.cpp:342)
  G vector (1/distance) = 0.11793198
  grid = 4 4 4
  stencil order = 5
  estimated absolute RMS force accuracy = 0.31826116
  estimated relative force accuracy = 0.00095843403
  using double precision KISS FFT
  3d grid and FFT values/proc = 294 4
Generated 28 of 28 mixed pair_coeff terms from sixthpower/sixthpower mixing rule
Setting up Verlet run ...
  Unit style    : real
  Current step  : 1200088
  Time step     : 0.25
WARNING: Inconsistent image flags (../domain.cpp:815)
Per MPI rank memory allocation (min/avg/max) = 15.05 | 15.06 | 15.06 Mbytes
   Step          Temp          PotEng         E_vdwl         E_coul         E_bond        E_angle        E_dihed        E_impro        Density         Volume    
   1200088   594.72487      18590.5       -1386.2539      4062.9839      3843.5683      20538.099     -6842.2631     -102.37625      1.0793572      52076.196    
   1220000   579.94825      18190.262     -1360.9786      4067.4254      3680.8354      20321.183     -6907.5511     -85.545136      1.0706519      52499.621    
   1240000   575.2722       18023.851     -1321.7591      4048.8064      3686.5366      20047.512     -6830.3352     -82.531489      1.0634527      52855.023    
   1260000   584.52249      18301.712     -1309.4681      4061.4867      3739.0167      20176.22      -6761.3645     -79.774337      1.0698395      52539.484    
   1280000   574.72262      18545.486     -1324.8068      4068.5638      3836.0948      20423.305     -6851.222      -83.706345      1.0700222      52530.514    
   1300000   588.15333      18209.096     -1359.536       4053.4664      3616.0574      20337.904     -6835.4387     -77.591329      1.0673307      52662.982    
   1320000   585.241        18303.696     -1294.155       4067.1274      3616.8727      20321.896     -6793.3914     -90.193263      1.0648426      52786.034    
   1340000   578.62233      18119.368     -1235.2947      4061.1775      3617.1003      20191.495     -6911.4747     -78.966136      1.0644521      52805.399    
   1360000   591.37436      18287.134     -1308.7742      4074.1097      3722.8526      20103.055     -6695.2434     -86.409706      1.0659903      52729.201    
   1380000   572.83155      18125.157     -1290.7795      4075.0549      3689.2637      20024.05      -6763.0722     -85.096119      1.0636109      52847.164    
   1400000   580.88864      18305.476     -1277.9471      4067.9063      3569.8823      20333.809     -6769.6253     -93.902287      1.0585308      53100.786    
   1420000   580.12116      18209.08      -1269.0249      4096.3492      3719.3668      20121.885     -6850.2059     -84.785274      1.0576632      53144.342    
   1440000   592.95281      18247.055     -1284.6576      4068.0627      3661.5098      20117.411     -6706.568      -85.558882      1.0766037      52209.385    
   1460000   582.74375      18386.47      -1317.7099      4069.8901      3833.9151      20249.737     -6839.1831     -86.517861      1.0812538      51984.85     
   1480000   575.59733      18338.221     -1321.7503      4089.1229      3719.0695      20310.657     -6857.8777     -77.543715      1.0692773      52567.109    
   1500000   573.66268      18255.919     -1350.0809      4042.7991      3777.3746      20368.457     -6976.5228     -83.749428      1.0703578      52514.044    
   1520000   582.8199       18326.323     -1296.1663      4064.0862      3715.0666      20242.925     -6793.9758     -83.284652      1.0667022      52694.011    
   1540000   583.22948      18170.418     -1450.6791      4033.7451      3819.8236      20254.982     -6870.3729     -92.236823      1.0737         52350.578    
   1560000   579.42355      18066.287     -1390.7401      4054.2064      3585.1327      20202.76      -6771.6091     -88.28817       1.0772087      52180.063    
   1580000   576.04792      18291.857     -1357.0688      4076.4833      3710.458       20367.637     -6897.0849     -83.830312      1.0673558      52661.743    
   1600000   573.74259      18043.716     -1348.2259      4071.4225      3715.3295      20098.234     -6884.0346     -85.286463      1.0790519      52090.931    
   1620000   579.27489      18083.619     -1327.1332      4054.8207      3582.4818      20240.091     -6861.9996     -81.711956      1.0721101      52428.214    
   1640000   573.58867      17828.05      -1352.9222      4039.6496      3484.6084      19887.99      -6624.3601     -83.586402      1.0750049      52287.034    
   1660000   576.63562      18289.281     -1413.5838      4021.688       3819.7637      20266.75      -6798.5808     -82.44626       1.0847279      51818.355    
   1680000   580.39656      18281.602     -1311.2879      4063.8631      3618.7265      20321.887     -6800.1067     -88.387953      1.0802647      52032.449    
   1700000   573.2158       18161.068     -1246.3565      4061.2532      3636.375       20078.332     -6758.4036     -85.714873      1.0639535      52830.142    
   1720000   576.66238      18354.498     -1397.5919      4101.33        3889.2283      20232.492     -6859.412      -87.481779      1.0682585      52617.241    
   1740000   583.38467      18260.094     -1302.4744      4087.0086      3691.0127      20266.78      -6873.2894     -85.1692        1.0684935      52605.671    
   1760000   587.60284      18132.303     -1351.2597      4062.6141      3647.3212      20266.169     -6876.8368     -91.459093      1.0813694      51979.292    
   1780000   574.31008      17963.335     -1360.9757      4078.9344      3584.5851      20226.486     -6958.1141     -84.249524      1.0837763      51863.855    
   1800000   582.46841      18298.957     -1297.7102      4093.8949      3707.0213      20261.565     -6852.9981     -88.916264      1.0695418      52554.109    
   1820000   584.62626      18407.878     -1387.0269      4075.837       3952.9814      20076.006     -6703.6621     -83.120603      1.0706749      52498.49     
   1840000   575.7351       18232.948     -1370.2419      4077.1558      3704.7206      20253.883     -6826.6262     -81.847987      1.0705755      52503.367    
   1860000   580.92007      18112.76      -1340.0634      4096.2974      3693.2426      20191.535     -6914.4391     -90.604294      1.0652957      52763.583    
   1880000   584.55833      18153.512     -1392.0211      4102.2412      3636.9485      20246.735     -6830.6478     -85.71797       1.0821325      51942.638    
   1900000   580.54482      18220.124     -1329.4894      4088.6821      3709.6779      20068.213     -6708.0589     -85.87767       1.073349       52367.699    
   1920000   578.33804      18196.158     -1375.6153      4098.4098      3682.2089      20201.518     -6798.3486     -88.979064      1.058654       53094.607    
   1940000   578.79657      18326.103     -1218.7987      4059.1477      3682.6076      20188.075     -6762.5401     -98.945601      1.0522027      53420.144    
   1960000   572.84589      18462.982     -1254.7624      4117.4359      3648.7619      20422.439     -6857.9109     -88.944253      1.0517152      53444.905    
   1980000   588.80508      18153.304     -1356.0289      4078.2477      3714.5926      20157.471     -6836.0089     -82.369008      1.0553758      53259.527    
   2000000   573.31639      18309.835     -1305.1077      4084.7668      3757.3554      20210.055     -6822.652      -93.050723      1.0714461      52460.706    
   2020000   590.83355      18078.009     -1298.5587      4123.5411      3572.9979      20028.722     -6739.1031     -86.707896      1.0677223      52643.667    
   2040000   587.61385      18043.025     -1254.5025      4093.9095      3530.6319      20116.239     -6839.8393     -81.299679      1.0643172      52812.093    
   2060000   576.51936      18227.428     -1399.7524      4086.426       3740.6075      20268.673     -6870.1262     -76.538696      1.0565969      53197.979    
   2080000   582.90742      18343.968     -1321.206       4077.5271      3729.3206      20302.344     -6835.0218     -85.284145      1.0794934      52069.625    
   2100000   581.44066      18099.826     -1353.6184      4064.1098      3629.0789      20168.826     -6796.1302     -90.424106      1.0671808      52670.38     
   2120000   582.76248      18243.963     -1378.5517      4093.547       3724.1099      20215.235     -6797.9499     -88.675903      1.0626883      52893.044    
   2140000   580.17179      18128.624     -1339.889       4087.1233      3679.1535      20123.613     -6817.2435     -79.354955      1.070556       52504.323    
   2160000   584.17654      18243.805     -1277.4333      4090.3925      3687.7155      20268.55      -6916.7804     -84.439584      1.0709212      52486.419    
   2180000   572.94751      18045.27      -1315.8619      4090.4164      3539.9278      20145.187     -6799.1638     -91.232188      1.0679392      52632.974    
   2200000   580.38554      18217.094     -1292.1189      4093.1182      3729.4113      20122.339     -6817.953      -95.394173      1.0674287      52658.145    
   2220000   578.68221      18263.863     -1327.4898      4094.5372      3673.6809      20334.069     -6901.4849     -85.208355      1.0654106      52757.893    
   2240000   577.26337      18299.537     -1332.9348      4062.4441      3719.676       20301.464     -6842.9749     -83.577208      1.0701158      52525.921    
   2260000   566.2113       18044.663     -1318.1187      4076.453       3637.5408      20063.35      -6796.827      -92.761872      1.0766244      52208.38     
   2280000   584.78695      18387.262     -1261.2454      4071.0426      3678.3289      20270.227     -6771.2098     -75.741532      1.0670307      52677.79     
   2300000   578.17547      18246.449     -1350.9669      4083.4443      3649.4801      20259.344     -6769.4037     -100.96255      1.0652884      52763.945    
   2320000   570.63115      18278.927     -1305.3794      4092.8323      3779.7004      20135.627     -6818.7678     -81.62178       1.0770754      52186.521    
   2340000   575.24424      18348.224     -1225.7816      4069.7457      3739.4921      20172.388     -6801.7527     -82.346684      1.0774284      52169.424    
   2360000   573.91855      18130.072     -1340.5239      4042.9192      3608.3679      20240.051     -6818.1324     -77.24264       1.0860717      51754.24     
   2380000   578.164        18182.832     -1336.609       4103.2768      3715.6117      20124.668     -6801.5298     -99.92114       1.0779742      52143.01     
   2400000   579.80806      18161.935     -1335.2749      4083.9988      3707.5953      20146.419     -6818.0741     -98.987919      1.0587826      53088.157    
   2400088   581.27129      18172.456     -1304.7009      4104.9506      3630.0714      20182.188     -6832.2421     -84.666128      1.0609066      52981.87     
Loop time of 3834.1 on 24 procs for 1200000 steps with 4952 atoms

Performance: 6.760 ns/day, 3.550 hours/ns, 312.981 timesteps/s, 1.550 Matom-step/s
99.5% CPU use with 24 MPI tasks x no OpenMP threads

MPI task timing breakdown:
Section |  min time  |  avg time  |  max time  |%varavg| %total
---------------------------------------------------------------
Pair    | 1815.2     | 2109.8     | 2424.5     | 312.8 | 55.03
Bond    | 589.12     | 647.53     | 698.37     | 123.4 | 16.89
Kspace  | 513.96     | 859.34     | 1191.7     | 551.5 | 22.41
Neigh   | 43.548     | 43.572     | 43.594     |   0.2 |  1.14
Comm    | 126.23     | 128.02     | 129.58     |   9.7 |  3.34
Output  | 0.0035256  | 0.0038496  | 0.01074    |   2.3 |  0.00
Modify  | 31.401     | 33.262     | 34.66      |  16.1 |  0.87
Other   |            | 12.62      |            |       |  0.33

Nlocal:        206.333 ave         229 max         182 min
Histogram: 2 0 2 2 6 4 2 3 2 1
Nghost:        4656.04 ave        4702 max        4620 min
Histogram: 4 1 2 4 5 2 1 2 2 1
Neighs:        69949.8 ave       82509 max       62736 min
Histogram: 3 4 4 4 3 2 2 0 1 1

Total # of neighbors = 1678796
Ave neighs/atom = 339.01373
Ave special neighs/atom = 6.0500808
Neighbor list builds = 15311
Dangerous builds = 0
PPPM initialization ...
  using 12-bit tables for long-range coulomb (../kspace.cpp:342)
  G vector (1/distance) = 0.11744396
  grid = 4 4 4
  stencil order = 5
  estimated absolute RMS force accuracy = 0.31917461
  estimated relative force accuracy = 0.00096118485
  using double precision KISS FFT
  3d grid and FFT values/proc = 294 4
Generated 28 of 28 mixed pair_coeff terms from sixthpower/sixthpower mixing rule
Setting up Verlet run ...
  Unit style    : real
  Current step  : 2400088
  Time step     : 0.25
WARNING: Inconsistent image flags (../domain.cpp:815)
Per MPI rank memory allocation (min/avg/max) = 15.05 | 15.06 | 15.06 Mbytes
   Step          Temp          PotEng         E_vdwl         E_coul         E_bond        E_angle        E_dihed        E_impro        Density         Volume    
   2400088   581.27129      18172.404     -1304.7009      4098.6202      3630.0714      20182.188     -6832.2421     -84.666128      1.0609066      52981.87     
   2420000   551.22626      18000.119     -1367.8219      4088.1372      3561.296       20130.285     -6810.2279     -83.635113      1.0799218      52048.97     
   2440000   559.03177      17841.179     -1371.3288      4064.096       3503.7585      20198.461     -6938.4248     -95.898974      1.0853049      51790.806    
   2460000   568.1306       17991.257     -1306.9251      4056.4077      3505.0487      20237.17      -6891.8231     -90.512505      1.0802841      52031.512    
   2480000   568.46358      17916.97      -1464.8171      4062.1636      3566.1715      20249.23      -6891.9598     -87.026902      1.0806429      52014.236    
   2500000   559.64195      17886.122     -1388.2801      4081.651       3653.0649      20057.277     -6915.6695     -85.59735       1.0799041      52049.823    
   2520000   568.06086      17703.357     -1386.4746      4057.894       3481.2098      20039.252     -6885.804      -87.019022      1.0960163      51284.655    
   2540000   569.03786      17835.274     -1463.1766      4079.1533      3621.4038      20051.974     -6847.0128     -91.605898      1.0814137      51977.164    
   2560000   568.45738      17850.778     -1431.3163      4059.3995      3641.4144      19957.652     -6781.6177     -78.043375      1.0826162      51919.43     
   2580000   553.66059      17956.849     -1413.9662      4063.6481      3607.0756      20218.598     -6917.4973     -85.060949      1.0788459      52100.878    
   2600000   554.56437      18057.034     -1328.7444      4098.8039      3574.8277      20039.772     -6720.3777     -90.02559       1.0723191      52417.997    
   2620000   559.21913      17643.906     -1376.5727      4054.1172      3510.1934      20070.476     -7020.7512     -75.5811        1.0796765      52060.796    
   2640000   556.50784      17983.403     -1359.6153      4076.582       3584.7416      20127.417     -6842.5954     -84.891804      1.0792887      52079.503    
   2660000   561.78113      17824.902     -1312.5346      4098.3117      3467.8702      20020.207     -6854.911      -76.209129      1.0818503      51956.185    
   2680000   562.31399      17803.829     -1404.334       4061.2376      3567.9156      20011.573     -6834.8507     -80.836578      1.0797839      52055.616    
   2700000   563.47264      17957.335     -1382.5637      4044.5671      3637.854       20043.893     -6780.4265     -89.408866      1.0584384      53105.419    
   2720000   560.64752      17917.113     -1325.5429      4080.1377      3559.6985      20029.56      -6823.5523     -85.334804      1.0719016      52438.409    
   2740000   553.40899      17840.8       -1340.8373      4057.0022      3577.2452      20031.296     -6885.7202     -82.105461      1.0753652      52269.514    
   2760000   548.00583      17980.946     -1339.4339      4072.3422      3645.0597      20029.187     -6822.0145     -86.569907      1.0713997      52462.978    
   2780000   561.33665      17790.52      -1366.2088      4097.7289      3469.5344      19996.522     -6809.0304     -81.894778      1.0817559      51960.722    
   2800000   563.88364      17837.073     -1323.9456      4049.7387      3520.1237      19893.469     -6695.5977     -88.009257      1.069431       52559.553    
   2820000   553.12637      17948.216     -1210.008       4047.082       3508.3811      20019.392     -6805.8081     -92.816353      1.0710248      52481.338    
   2840000   563.68585      17973.152     -1296.6856      4053.3545      3577.0992      20074.572     -6840.0965     -76.883072      1.0617518      52939.697    
   2860000   563.09928      18107.744     -1315.9033      4062.939       3632.7716      20241.37      -6914.5551     -81.928861      1.0759995      52238.701    
   2880000   562.1625       18007.289     -1334.9018      4114.4597      3581.4566      20151.395     -6892.9666     -96.055933      1.061239       52965.279    
   2900000   566.98008      17969.125     -1319.1525      4119.9329      3546.4558      20014.041     -6788.0549     -88.350967      1.0665164      52703.19     
   2920000   562.05312      17856.783     -1440.9591      4054.5786      3629.0887      20053.957     -6836.8933     -86.60987       1.083835       51861.044    
   2940000   548.95096      17872.791     -1427.7776      4106.4215      3549.5801      20174.473     -6939.932      -72.159899      1.0807209      52010.484    
   2960000   553.04082      17974.514     -1310.6002      4061.522       3583.7571      20010.452     -6765.5975     -86.994736      1.0745212      52310.57     
   2980000   565.37963      18105.713     -1341.0876      4066.651       3639.1211      20211.17      -6863.9362     -90.734726      1.0690156      52579.977    
   3000000   562.21294      17735.245     -1364.8857      4039.9011      3492.4383      19972.562     -6794.8785     -93.214713      1.0832234      51890.327    
   3020000   549.65502      18024.134     -1325.2005      4053.1721      3621.9572      20093.249     -6829.2338     -70.878468      1.0809564      51999.154    
   3040000   561.41632      17880.251     -1350.2911      4084.4715      3591.783       19966.07      -6813.6703     -80.022026      1.0726798      52400.369    
   3060000   558.73235      17864.765     -1369.8065      4079.7871      3563.4917      20000.58      -6815.4276     -75.951543      1.0724756      52410.344    
   3080000   557.01295      17826.018     -1344.5271      4075.9117      3552.721       20083.475     -6931.8286     -91.530402      1.0694965      52556.337    
   3100000   555.0782       17857.406     -1321.3241      4097.507       3580.4964      20012.194     -6915.1627     -79.379376      1.0603637      53008.999    
   3120000   564.90885      18008.089     -1354.7288      4053.2733      3585.946       20079.058     -6745.9707     -90.275197      1.0748173      52296.158    
   3140000   560.53365      17859.285     -1298.1515      4067.5284      3531.7097      19963.193     -6791.1521     -96.893841      1.061696       52942.48     
   3160000   567.31658      17936.317     -1423.8214      4056.8673      3579.693       20202.021     -6874.4814     -86.827951      1.0793686      52075.646    
   3180000   559.49025      17811.142     -1328.2629      4065.6527      3551.1088      19986.707     -6869.0242     -78.584153      1.0699126      52535.896    
   3200000   565.17808      17969.76      -1397.388       4047.0432      3566.9513      20306.391     -6950.897      -85.188331      1.0723483      52416.565    
   3220000   560.20069      17746.949     -1352.0769      4036.9787      3466.5677      20041.355     -6848.3722     -80.025846      1.0789298      52096.827    
   3240000   560.3327       17880.585     -1399.5587      4066.2013      3619.5176      20007.033     -6807.2932     -88.242137      1.0720066      52433.275    
   3260000   550.76927      17914.656     -1289.0315      4070.9207      3519.872       20017.893     -6799.5029     -87.189833      1.0750512      52284.783    
   3280000   559.225        17832.684     -1313.7947      4052.2144      3585.956       20038.923     -6921.5856     -91.358132      1.0745683      52308.279    
   3300000   553.22202      17897.766     -1294.6096      4085.2551      3543.3234      20091.071     -6921.5608     -89.32667       1.0804921      52021.496    
   3320000   567.28461      17889.17      -1337.6056      4074.0517      3518.7104      20098.577     -6856.5869     -90.147893      1.0820032      51948.845    
   3340000   559.17406      17850.603     -1325.9357      4061.8983      3570.0609      20081.606     -6937.1933     -80.999854      1.070189       52522.328    
   3360000   552.6182       17848.955     -1331.0598      4072.9198      3657.9417      19898.72      -6851.6299     -80.317696      1.0697445      52544.151    
   3380000   551.33983      17845.121     -1355.4248      4069.6239      3535.8178      20176.365     -6974.3889     -88.933486      1.0686733      52596.818    
   3400000   563.93072      17936.133     -1370.7619      4084.934       3639.8828      19940.119     -6763.8978     -75.820155      1.0713081      52467.463    
   3420000   562.63132      17969.562     -1267.5624      4066.1121      3593.2213      20054.752     -6882.5432     -76.091222      1.0787744      52104.328    
   3440000   560.03781      17854.108     -1342.5179      4088.6161      3585.9995      20012.031     -6884.9375     -88.256417      1.0784559      52119.717    
   3460000   559.77467      17897.755     -1331.317       4066.1216      3604.1562      20033.005     -6866.8708     -90.774692      1.0699941      52531.892    
   3480000   560.81808      17915.454     -1332.0728      4046.8726      3623.3407      20051.793     -6873.2946     -82.920929      1.0698232      52540.287    
   3500000   570.15096      17910.72      -1314.4539      4085.9546      3586.1015      20074.982     -6915.894      -88.357313      1.0594298      53055.725    
   3520000   558.33982      17907.977     -1288.2193      4075.8952      3502.8113      20114.49      -6887.7814     -91.212002      1.0548543      53285.856    
   3540000   559.31399      17895.347     -1294.5696      4073.4274      3498.2533      20142.156     -6926.29       -79.758193      1.0668954      52684.471    
   3560000   565.10063      18001.793     -1343.5758      4077.7689      3640.7731      19963.49      -6732.7464     -87.21779       1.0706542      52499.507    
   3580000   578.13203      17809.212     -1344.9127      4049.565       3452.5481      20035.181     -6772.8294     -96.328007      1.07607        52235.279    
   3600000   556.5085       17944.599     -1346.1143      4010.1365      3544.3401      20135.938     -6802.8446     -81.470758      1.0693167      52565.173    
   3600088   559.98507      17954.723     -1263.126       4010.2009      3519.1033      20111.543     -6822.2987     -85.925814      1.0724941      52409.441    
Loop time of 3855.08 on 24 procs for 1200000 steps with 4952 atoms

Performance: 6.724 ns/day, 3.570 hours/ns, 311.278 timesteps/s, 1.541 Matom-step/s
99.5% CPU use with 24 MPI tasks x no OpenMP threads

MPI task timing breakdown:
Section |  min time  |  avg time  |  max time  |%varavg| %total
---------------------------------------------------------------
Pair    | 1845.6     | 2113.7     | 2460       | 328.8 | 54.83
Bond    | 587.77     | 647.25     | 714.69     | 138.0 | 16.79
Kspace  | 505.88     | 878.17     | 1194.1     | 579.6 | 22.78
Neigh   | 41.876     | 41.921     | 41.949     |   0.3 |  1.09
Comm    | 126.02     | 128.29     | 129.78     |   9.5 |  3.33
Output  | 0.0059213  | 0.0064529  | 0.017967   |   3.0 |  0.00
Modify  | 31.255     | 33.354     | 34.857     |  16.3 |  0.87
Other   |            | 12.35      |            |       |  0.32

Nlocal:        206.333 ave         227 max         183 min
Histogram: 1 1 3 2 4 4 3 2 2 2
Nghost:           4688 ave        4735 max        4651 min
Histogram: 1 1 8 4 1 2 3 0 2 2
Neighs:        70299.8 ave       84239 max       58435 min
Histogram: 2 1 3 3 6 3 2 2 0 2

Total # of neighbors = 1687195
Ave neighs/atom = 340.70981
Ave special neighs/atom = 6.0500808
Neighbor list builds = 14633
Dangerous builds = 0
PPPM initialization ...
  using 12-bit tables for long-range coulomb (../kspace.cpp:342)
  G vector (1/distance) = 0.11775131
  grid = 4 4 4
  stencil order = 5
  estimated absolute RMS force accuracy = 0.31860147
  estimated relative force accuracy = 0.00095945887
  using double precision KISS FFT
  3d grid and FFT values/proc = 294 4
Generated 28 of 28 mixed pair_coeff terms from sixthpower/sixthpower mixing rule
Setting up Verlet run ...
  Unit style    : real
  Current step  : 3600088
  Time step     : 0.25
WARNING: Inconsistent image flags (../domain.cpp:815)
Per MPI rank memory allocation (min/avg/max) = 15.05 | 15.06 | 15.06 Mbytes
   Step          Temp          PotEng         E_vdwl         E_coul         E_bond        E_angle        E_dihed        E_impro        Density         Volume    
   3600088   559.98507      17955.193     -1263.126       4014.6211      3519.1033      20111.543     -6822.2987     -85.925814      1.0724941      52409.441    
   3620000   540.95487      17492.609     -1417.9094      4059.2885      3449.5209      19837.164     -6827.5349     -87.167607      1.0900744      51564.203    
   3640000   537.91197      17566.992     -1348.1557      4013.077       3489.4642      19946.651     -6936.4036     -77.970253      1.0715957      52453.382    
   3660000   545.80029      17540.4       -1328.5527      4076.4374      3372.7978      19808.915     -6782.6808     -83.581114      1.0870318      51708.532    
   3680000   540.6553       17746.788     -1307.439       4067.3195      3552.7777      19741.95      -6706.069      -79.78009       1.0729368      52387.816    
   3700000   533.33601      17479.169     -1369.0012      4064.4991      3386.0047      19923.826     -6914.2669     -89.626359      1.0753408      52270.698    
   3720000   540.39225      17685.803     -1357.4768      4074.1441      3452.3036      20068.547     -6942.7272     -88.579245      1.0668139      52688.493    
   3740000   551.67959      17426.084     -1433.4558      4073.1073      3414.6733      19866.306     -6877.5285     -96.372         1.0814151      51977.097    
   3760000   527.14066      17357.689     -1405.0683      4015.988       3384.8229      19957.414     -6993.4877     -80.288286      1.0849455      51807.961    
   3780000   542.71011      17548.602     -1394.8333      4066.7131      3343.8723      19956.99      -6814.6379     -87.634785      1.0789513      52095.784    
   3800000   536.14031      17690.499     -1424.6012      4081.9083      3533.141       20052.127     -6946.9493     -83.620041      1.07424        52324.262    
   3820000   537.36007      17504.48      -1399.1793      4055.6776      3450.82        19883.594     -6887.3902     -77.173616      1.08167        51964.849    
   3840000   535.85174      17520.699     -1387.6322      4099.3069      3404.5834      19860.129     -6841.2667     -91.984299      1.0776856      52156.97     
   3860000   541.04053      17761.955     -1397.1999      4065.1426      3424.9602      20161.124     -6895.4581     -75.334682      1.075904       52243.34     
   3880000   539.1614       17546.35      -1388.5358      4040.4355      3413.5335      19858.986     -6769.8534     -88.000489      1.0840259      51851.915    
   3900000   545.88029      17694.205     -1331.5646      4064.5826      3449.7476      20089.731     -6970.4967     -88.521195      1.071802       52443.285    
   3920000   536.56786      17494.14      -1417.2661      4047.6352      3510.2358      19813.497     -6854.0187     -84.756048      1.0832844      51887.405    
   3940000   542.29235      17490.562     -1444.1211      4059.6887      3557.8296      19669.568     -6742.9185     -86.978901      1.0939345      51382.252    
   3960000   544.86853      17564.52      -1376.4213      4039.9433      3450.8867      19920.613     -6880.8963     -69.747002      1.0834692      51878.554    
   3980000   539.68567      17602.911     -1367.3826      4069.439       3537.1711      19999.272     -7026.1021     -86.638812      1.0760425      52236.612    
   4000000   549.15991      17476.931     -1339.0543      4059.5846      3435.6789      19778.241     -6847.3089     -87.80573       1.0702279      52520.416    
   4020000   542.3318       17524.409     -1399.293       4065.7011      3360.2144      19928.214     -6829.2906     -78.289262      1.0760377      52236.846    
   4040000   538.11211      17556.974     -1403.4859      4070.4776      3372.839       19999.947     -6870.0566     -91.700318      1.0824828      51925.829    
   4060000   535.63041      17605.237     -1445.7738      4043.379       3534.6119      19906.802     -6830.5252     -81.997935      1.0792873      52079.567    
   4080000   536.48204      17547.888     -1415.0759      4074.6689      3513.5328      19914.005     -6949.3132     -67.673596      1.0839804      51854.089    
   4100000   549.4012       17644.446     -1358.9235      4052.0187      3512.4719      19902.64      -6849.3904     -92.843921      1.0834342      51880.23     
   4120000   549.41832      17454.245     -1382.7865      4041.0763      3437.5411      19823.289     -6862.4823     -82.08725       1.0862586      51745.339    
   4140000   543.08307      17470.233     -1394.0547      4082.2473      3457.7643      19794.909     -6869.2977     -81.2206        1.0854291      51784.879    
   4160000   545.15268      17606.446     -1513.4449      4050.7382      3635.1465      19980.971     -6931.5218     -96.952885      1.0920131      51472.656    
   4180000   552.66684      17473.001     -1450.7         4032.888       3539.7043      19825.827     -6868.3548     -84.979791      1.0901617      51560.072    
   4200000   537.55494      17531.586     -1381.0321      4060.2326      3478.1082      19898.461     -6911.3624     -91.310581      1.0893973      51596.251    
   4220000   540.84853      17586.175     -1356.3312      4054.7707      3406.9278      20017.238     -6935.7273     -78.513195      1.0743341      52319.682    
   4240000   548.27635      17407.026     -1470.4883      4059.7128      3438.7486      19984.135     -6999.5677     -83.804547      1.0788585      52100.266    
   4260000   535.38572      17497.385     -1528.2087      4065.1151      3501.8402      19958.118     -6900.3775     -77.750018      1.0908314      51528.419    
   4280000   549.30742      17594.124     -1360.345       4096.3925      3415.0215      19871.077     -6828.1161     -79.167889      1.0811602      51989.35     
   4300000   539.46469      17464.176     -1480.9695      4094.152       3359.7052      20001.64      -6911.494      -77.490836      1.089697       51582.059    
   4320000   528.24207      17471.347     -1457.7849      4076.1799      3431.4826      19901.518     -6871.5546     -86.825663      1.0774274      52169.468    
   4340000   554.7862       17563.574     -1331.7928      4069.6751      3430.8379      19849.161     -6851.3727     -81.688836      1.0749817      52288.161    
   4360000   547.44959      17425.57      -1337.1391      4055.7435      3437.3493      19729.145     -6856.4005     -80.931007      1.0769083      52194.617    
   4380000   540.96909      17396.5       -1458.974       4053.8101      3412.1154      19742.954     -6743.623      -87.867979      1.08835        51645.902    
   4400000   544.92782      17483.871     -1447.894       4076.575       3455.114       19908.866     -6903.0681     -82.835278      1.0956325      51302.619    
   4420000   538.36199      17495.849     -1471.0333      4041.456       3514.2745      19830.466     -6817.9728     -79.179458      1.1001275      51093.002    
   4440000   530.76084      17486.765     -1499.5477      4045.5821      3522.2733      19927.616     -6902.0826     -84.894537      1.0824963      51925.182    
   4460000   544.57901      17534.447     -1473.0878      4038.8318      3434.7367      20025.251     -6884.1192     -85.283942      1.0914799      51497.805    
   4480000   546.7246       17487.416     -1414.5305      4069.3355      3545.3741      19820.341     -6925.1931     -86.280941      1.0771943      52180.761    
   4500000   536.97952      17531.59      -1342.8962      4034.6697      3431.7678      19981.914     -6966.086      -85.296319      1.0654689      52755.006    
   4520000   541.17422      17537.371     -1364.7632      4060.9         3542.0224      19852.719     -6949.5383     -82.414866      1.0838923      51858.302    
   4540000   539.13782      17708.068     -1280.7948      4092.1095      3470.4482      19952.649     -6913.0426     -90.747213      1.0791357      52086.884    
   4560000   540.75931      17346.268     -1414.8178      4051.636       3398.4633      19844.693     -6931.126      -81.636761      1.0812698      51984.08     
   4580000   536.69011      17507.637     -1378.9059      4052.6716      3465.259       19925.163     -6943.0131     -91.084504      1.0728236      52393.347    
   4600000   545.65204      17558.504     -1428.7778      4091.3132      3408.8843      19910.752     -6819.2013     -82.072183      1.0884195      51642.605    
   4620000   533.53415      17559.087     -1392.4065      4077.3827      3458.5754      19865.188     -6838.5628     -89.030612      1.0845128      51828.635    
   4640000   536.67023      17587.626     -1325.4612      4076.9114      3424.2176      19789.372     -6775.4418     -80.734901      1.0841523      51845.866    
   4660000   533.35619      17494.956     -1293.5865      4058.7682      3318.4271      19894.939     -6864.7689     -100.13985      1.0642396      52815.944    
   4680000   536.19422      17570.753     -1511.7148      4082.6286      3523.5805      20023.336     -6942.9958     -82.887798      1.0833485      51884.335    
   4700000   536.76169      17522.396     -1415.431       4048.9136      3458.0343      19907.158     -6872.0096     -83.75939       1.0821975      51939.519    
   4720000   535.75959      17603.517     -1396.8988      4094.6305      3565.2057      19926.948     -6982.1221     -84.64996       1.0797636      52056.595    
   4740000   531.23756      17492.845     -1342.2594      4035.5864      3466.9489      19828.373     -6897.8754     -76.092681      1.0719486      52436.111    
   4760000   536.41654      17665.62      -1411.1281      4072.9982      3550.123       20022.232     -6962.0242     -84.585495      1.0733198      52369.121    
   4780000   539.52377      17685.355     -1377.2749      4052.8044      3490.5228      19981.266     -6867.6974     -73.430248      1.0648196      52787.172    
   4800000   540.78153      17608.073     -1354.6741      4081.13        3491.5203      19835.305     -6838.6845     -85.085059      1.0713061      52467.559    
   4800088   540.82307      17539.42      -1372.7245      4083.8294      3495.4603      19745.95      -6802.1899     -89.407545      1.0714145      52462.251    
Loop time of 3887.62 on 24 procs for 1200000 steps with 4952 atoms

Performance: 6.667 ns/day, 3.600 hours/ns, 308.672 timesteps/s, 1.529 Matom-step/s
99.5% CPU use with 24 MPI tasks x no OpenMP threads

MPI task timing breakdown:
Section |  min time  |  avg time  |  max time  |%varavg| %total
---------------------------------------------------------------
Pair    | 1854.8     | 2133.4     | 2468.4     | 343.3 | 54.88
Bond    | 577.73     | 646.83     | 709.65     | 154.6 | 16.64
Kspace  | 531.07     | 893.53     | 1240       | 610.9 | 22.98
Neigh   | 40.145     | 40.196     | 40.234     |   0.4 |  1.03
Comm    | 125.72     | 128.25     | 130.07     |   9.9 |  3.30
Output  | 0.0044052  | 0.0048511  | 0.014431   |   2.9 |  0.00
Modify  | 31.103     | 33.05      | 34.695     |  16.8 |  0.85
Other   |            | 12.38      |            |       |  0.32

Nlocal:        206.333 ave         230 max         182 min
Histogram: 1 0 2 5 4 5 4 0 0 3
Nghost:        4673.04 ave        4734 max        4627 min
Histogram: 2 2 4 3 4 4 2 0 2 1
Neighs:        70439.8 ave       84518 max       61979 min
Histogram: 3 3 3 5 2 6 0 1 0 1

Total # of neighbors = 1690556
Ave neighs/atom = 341.38853
Ave special neighs/atom = 6.0500808
Neighbor list builds = 13932
Dangerous builds = 0
PPPM initialization ...
  using 12-bit tables for long-range coulomb (../kspace.cpp:342)
  G vector (1/distance) = 0.1177228
  grid = 4 4 4
  stencil order = 5
  estimated absolute RMS force accuracy = 0.31865495
  estimated relative force accuracy = 0.00095961991
  using double precision KISS FFT
  3d grid and FFT values/proc = 294 4
Generated 28 of 28 mixed pair_coeff terms from sixthpower/sixthpower mixing rule
Setting up Verlet run ...
  Unit style    : real
  Current step  : 4800088
  Time step     : 0.25
WARNING: Inconsistent image flags (../domain.cpp:815)
Per MPI rank memory allocation (min/avg/max) = 15.05 | 15.06 | 15.06 Mbytes
   Step          Temp          PotEng         E_vdwl         E_coul         E_bond        E_angle        E_dihed        E_impro        Density         Volume    
   4800088   540.82307      17539.415     -1372.7245      4083.4568      3495.4603      19745.95      -6802.1899     -89.407545      1.0714145      52462.251    
   4820000   522.03034      17288.355     -1386.6068      4110.5893      3438.3563      19590.163     -6857.4913     -86.073593      1.0808111      52006.142    
   4840000   513.79537      17236.296     -1416.3901      4085.6411      3323.2105      19687.229     -6840.6401     -82.360802      1.0799351      52048.327    
   4860000   522.8694       17235.356     -1302.3024      4076.0204      3219.8928      19783.842     -6929.5476     -91.59543       1.0812723      51983.959    
   4880000   523.85911      17367.456     -1374.2517      4074.4391      3443.8863      19681.089     -6850.9921     -86.365798      1.0590501      53074.745    
   4900000   518.35387      17184.505     -1459.5807      4084.3775      3319.2837      19837.36      -6985.1715     -89.929845      1.089764       51578.891    
   4920000   519.10059      17120.755     -1426.454       4071.1279      3327.6694      19618.689     -6873.277      -76.403853      1.0820612      51946.061    
   4940000   532.67069      17208.883     -1518.176       4075.2041      3405.3583      19718.083     -6873.4877     -78.496597      1.0859619      51759.473    
   4960000   522.66082      17223.245     -1430.6959      4098.325       3306.8555      19732.608     -6882.0455     -81.475734      1.0857109      51771.441    
   4980000   529.36896      17332.355     -1377.7085      4057.9838      3339.0904      19651.122     -6734.4445     -83.000212      1.0857723      51768.511    
   5000000   512.63947      17209.599     -1429.4209      4072.7641      3302.7889      19845.771     -6968.0838     -93.552674      1.0893266      51599.599    
   5020000   515.55966      17357.849     -1429.8231      4043.0011      3492.3514      19709.474     -6848.9658     -87.259345      1.0886924      51629.658    
   5040000   518.51424      17327.34      -1432.3139      4073.1554      3459.1199      19789.025     -6958.6473     -82.1369        1.0872187      51699.639    
   5060000   524.52418      17368.949     -1427.4938      4076.6047      3401.7269      19775.29      -6859.0195     -79.350125      1.0830745      51897.459    
   5080000   520.32587      17344.791     -1420.6255      4051.6842      3317.8693      19868.004     -6859.5355     -92.178727      1.0751043      52282.197    
   5100000   532.71167      17115.778     -1420.8948      4054.7445      3298.7189      19658.027     -6854.7594     -99.309809      1.0828921      51906.203    
   5120000   504.15621      17319.128     -1360.604       4065.8828      3338.203       19826.62      -6946.3931     -82.297818      1.0768856      52195.715    
   5140000   520.86308      17366.581     -1419.3512      4037.8995      3333.3205      19885.209     -6862.9067     -85.903687      1.0782503      52129.654    
   5160000   531.42694      17158.794     -1395.2939      4068.8242      3309.533       19702.114     -6909.2426     -94.804254      1.0752972      52272.822    
   5180000   522.41046      17318.335     -1395.4014      4083.205       3318.5184      19889.133     -6971.0573     -85.246949      1.0738172      52344.864    
   5200000   516.57258      17342.912     -1476.248       4089.9106      3452.6697      19717.251     -6828.9754     -91.253246      1.0795801      52065.445    
   5220000   522.62967      17080.91      -1455.3204      4092.0563      3307.6939      19687.827     -6942.2276     -87.689303      1.0907032      51534.475    
   5240000   514.15227      17103.181     -1369.6043      4076.8202      3321.5658      19750.474     -7077.343      -78.695968      1.0783912      52122.843    
   5260000   510.77002      17116.353     -1382.4661      4067.6407      3236.3671      19773.482     -6973.6421     -82.115412      1.0822659      51936.234    
   5280000   509.51291      17057.541     -1443.9364      4053.1342      3341.7563      19714.783     -7003.6364     -82.314904      1.0840771      51849.466    
   5300000   531.26389      17297.594     -1361.3163      4066.7994      3388.7295      19739.576     -6923.4708     -90.942061      1.0794116      52073.569    
   5320000   513.61468      17186.611     -1549.2912      4049.9528      3418.7811      19696.896     -6820.1341     -89.090036      1.0851147      51799.884    
   5340000   508.78345      17172.203     -1498.7225      4076.708       3178.492       19962.606     -6942.4357     -82.080175      1.0799596      52047.146    
   5360000   520.52195      17227.345     -1422.2125      4068.0424      3404.7445      19580.359     -6794.4181     -89.202403      1.0755275      52261.625    
   5380000   522.74315      17351.541     -1373.7924      4064.2794      3440.9842      19673.711     -6841.3712     -91.482683      1.0790419      52091.414    
   5400000   520.20354      17190.662     -1369.6293      4065.7085      3300.671       19737.54      -6929.3546     -93.293521      1.0851549      51797.967    
   5420000   525.7737       17098.142     -1416.0573      4074.8817      3280.2113      19699.942     -6949.9855     -69.843146      1.0717806      52444.332    
   5440000   526.35837      17249.089     -1414.3065      4082.3269      3300.8792      19797.16      -6913.0368     -82.120819      1.0816515      51965.735    
   5460000   526.76883      17142.438     -1425.3897      4065.859       3239.1403      19767.364     -6896.4142     -85.625565      1.0835622      51874.1      
   5480000   522.29482      17285.162     -1452.809       4076.2862      3361.2942      19719.116     -6819.6326     -76.567319      1.087067       51706.856    
   5500000   521.12111      17066.91      -1424.5417      4078.7495      3274.4468      19737.587     -6990.2993     -87.329886      1.0763942      52219.546    
   5520000   513.60874      17250.658     -1320.1114      4085.4496      3421.9403      19659.095     -6990.1407     -84.024366      1.0827851      51911.33     
   5540000   525.38487      17040.02      -1523.9304      4063.7717      3326.0828      19692.692     -6912.0508     -85.641775      1.0936544      51395.408    
   5560000   531.60769      17205.844     -1476.7363      4077.7503      3410.7852      19780.609     -6984.0707     -81.183096      1.1009781      51053.53     
   5580000   530.24438      17210.816     -1483.992       4058.2066      3350.6998      19849.078     -6954.9824     -86.98082       1.0980202      51191.061    
   5600000   516.6452       17018.596     -1434.1006      4045.6197      3245.3147      19682.746     -6922.2463     -76.681916      1.0890361      51613.362    
   5620000   520.83236      16846.246     -1483.3424      4030.7315      3305.7944      19505.086     -6902.0685     -87.989081      1.1019703      51007.563    
   5640000   510.49634      17150.89      -1419.4556      4066.4923      3378.3892      19698.083     -6970.8142     -80.575226      1.0875658      51683.143    
   5660000   511.58715      17059.998     -1489.8004      4069.4686      3305.2254      19650.139     -6872.5777     -80.654434      1.0929684      51427.667    
   5680000   517.58239      17185.105     -1429.1995      4084.8711      3307.8151      19803.883     -6971.4667     -88.581378      1.0851505      51798.175    
   5700000   516.47334      17075.862     -1478.5         4071.4446      3396.4101      19604.301     -6922.1541     -73.68851       1.0900529      51565.217    
   5720000   512.65526      17359.418     -1407.6822      4071.4392      3444.9736      19701.592     -6849.8454     -79.859291      1.084289       51839.334    
   5740000   528.82592      17078.084     -1513.4338      4076.096       3246.856       19797.771     -6940.4199     -66.940951      1.0940087      51378.764    
   5760000   514.08499      17296.522     -1364.697       4094.2795      3369.9989      19741.234     -6940.4494     -81.185267      1.0794042      52073.929    
   5780000   520.63619      17145.916     -1463.1184      4079.1412      3374.5568      19613.627     -6844.4334     -90.673828      1.0929086      51430.482    
   5800000   518.1339       17220.639     -1498.2922      4082.7959      3254.2354      19857.41      -6869.1111     -83.971439      1.0881394      51655.896    
   5820000   509.67159      17287.969     -1459.0039      4059.0828      3519.4739      19740.41      -6968.9212     -80.705243      1.0843412      51836.835    
   5840000   516.4189       17243.883     -1396.884       4092.0791      3271.0044      19829.031     -6940.505      -89.658733      1.0845777      51825.531    
   5860000   516.30739      16912.989     -1414.5188      4053.2967      3279.759       19488.467     -6892.8034     -80.861307      1.0913004      51506.275    
   5880000   525.86677      17238.907     -1331.1934      4051.264       3433.3537      19616.909     -6924.8484     -85.441917      1.0692934      52566.318    
   5900000   511.35964      17209.753     -1392.9329      4099.2577      3299.548       19736.942     -6912.4415     -97.940891      1.0898168      51576.393    
   5920000   531.45316      17391.612     -1387.1358      4079.5047      3321.6894      19933.183     -6940.3757     -92.89621       1.0767767      52200.998    
   5940000   522.86043      17271.511     -1461.3534      4028.535       3416.1015      19648.555     -6751.5628     -86.475706      1.0805865      52016.951    
   5960000   521.0857       17238.098     -1479.7037      4030.0178      3400.6372      19813.16      -6927.4033     -76.894615      1.0892888      51601.39     
   5980000   506.50068      17060.668     -1416.5781      4055.4107      3259.3454      19742.314     -6978.2663     -81.215422      1.0857662      51768.803    
   6000000   521.38873      17166.687     -1378.4915      4051.8996      3360.6178      19720.149     -6984.2455     -81.859835      1.0817355      51961.703    
   6000088   522.13038      17146.285     -1398.8032      4044.1694      3343.2349      19662.592     -6896.7309     -86.877533      1.0825147      51924.297    
Loop time of 3908.95 on 24 procs for 1200000 steps with 4952 atoms

Performance: 6.631 ns/day, 3.619 hours/ns, 306.988 timesteps/s, 1.520 Matom-step/s
99.5% CPU use with 24 MPI tasks x no OpenMP threads

MPI task timing breakdown:
Section |  min time  |  avg time  |  max time  |%varavg| %total
---------------------------------------------------------------
Pair    | 1845.1     | 2134       | 2522.3     | 327.5 | 54.59
Bond    | 564.79     | 646.49     | 717.69     | 154.1 | 16.54
Kspace  | 482.96     | 915.44     | 1285       | 579.1 | 23.42
Neigh   | 38.609     | 38.648     | 38.678     |   0.3 |  0.99
Comm    | 126.73     | 128.77     | 130.13     |   8.6 |  3.29
Output  | 0.0029775  | 0.0035228  | 0.015394   |   4.2 |  0.00
Modify  | 31.195     | 33.217     | 34.673     |  17.4 |  0.85
Other   |            | 12.41      |            |       |  0.32

Nlocal:        206.333 ave         229 max         182 min
Histogram: 2 1 2 2 4 4 2 4 1 2
Nghost:        4705.92 ave        4752 max        4674 min
Histogram: 5 1 2 2 6 3 1 2 1 1
Neighs:        71212.5 ave       81667 max       58197 min
Histogram: 1 0 2 4 4 4 3 0 3 3

Total # of neighbors = 1709101
Ave neighs/atom = 345.13348
Ave special neighs/atom = 6.0500808
Neighbor list builds = 13319
Dangerous builds = 0
PPPM initialization ...
  using 12-bit tables for long-range coulomb (../kspace.cpp:342)
  G vector (1/distance) = 0.11801476
  grid = 4 4 4
  stencil order = 5
  estimated absolute RMS force accuracy = 0.31810439
  estimated relative force accuracy = 0.00095796192
  using double precision KISS FFT
  3d grid and FFT values/proc = 294 4
Generated 28 of 28 mixed pair_coeff terms from sixthpower/sixthpower mixing rule
Setting up Verlet run ...
  Unit style    : real
  Current step  : 6000088
  Time step     : 0.25
WARNING: Inconsistent image flags (../domain.cpp:815)
Per MPI rank memory allocation (min/avg/max) = 15.05 | 15.06 | 15.06 Mbytes
   Step          Temp          PotEng         E_vdwl         E_coul         E_bond        E_angle        E_dihed        E_impro        Density         Volume    
   6000088   522.13038      17146.476     -1398.8032      4048.1245      3343.2349      19662.592     -6896.7309     -86.877533      1.0825147      51924.297    
   6020000   498.314        16852.311     -1438.1739      4038.9852      3255.8702      19546.254     -6954.8266     -70.619582      1.0796649      52061.354    
   6040000   491.49698      16848.982     -1462.1974      4067.5917      3191.8711      19487.664     -6829.4756     -80.423592      1.0951831      51323.671    
   6060000   501.96048      16894.319     -1427.8862      4076.4796      3307.2583      19540.889     -7002.6126     -73.985276      1.0779089      52146.167    
   6080000   505.11201      16886.403     -1383.2159      4089.8668      3264.1244      19476.427     -6958.3217     -77.804545      1.0921013      51468.501    
   6100000   498.49414      16806.945     -1543.4548      4055.8908      3324.7683      19499.632     -6918.1683     -86.075686      1.0944469      51358.194    
   6120000   496.03786      16878.748     -1469.1471      4082.3008      3228.2707      19523.878     -6876.4216     -83.914722      1.0924516      51451.997    
   6140000   500.14485      16856.736     -1457.3859      4069.2923      3197.479       19523.564     -6865.5953     -85.627169      1.1054033      50849.149    
   6160000   492.33785      16925.81      -1452.3628      4069.1786      3261.7226      19668.297     -7011.5683     -84.68978       1.0890764      51611.454    
   6180000   505.22579      17033.4       -1506.8131      4090.7132      3246.1586      19684.925     -6882.9944     -73.727761      1.0892982      51600.945    
   6200000   497.37854      16793.021     -1520.8707      4067.604       3194.9249      19674.748     -7008.6704     -89.603252      1.0943754      51361.549    
   6220000   499.40055      16851.851     -1450.238       4068.7008      3196.304       19677.698     -7033.397      -80.729357      1.0926229      51443.931    
   6240000   495.20587      16818.323     -1435.5427      4083.1489      3247.0043      19496.604     -6953.1518     -94.804152      1.0878721      51668.59     
   6260000   501.52702      16784.294     -1445.5534      4071.5061      3136.1002      19652.426     -7031.3282     -74.129233      1.0774419      52168.769    
   6280000   502.86768      16827.171     -1408.3126      4092.4535      3172.8318      19563.64      -6985.5047     -82.290661      1.0911531      51513.224    
   6300000   494.96154      16939.116     -1449.0647      4053.4331      3262.2381      19651.015     -6969.1794     -84.814606      1.081927       51952.503    
   6320000   498.85041      16819.292     -1452.255       4099.6234      3240.8886      19521.243     -6984.9523     -79.808735      1.0834276      51880.546    
   6340000   494.03693      16773.276     -1505.3166      4076.9235      3185.079       19604.679     -6978.4278     -83.767856      1.0933025      51411.954    
   6360000   500.25998      16925.486     -1483.8539      4093.7647      3279.5922      19505.67      -6861.0835     -83.216613      1.0819551      51951.156    
   6380000   497.01131      16835.307     -1419.0607      4085.7832      3178.1451      19548.179     -6954.8875     -76.66437       1.0860336      51756.056    
   6400000   495.78958      16797.114     -1330.8944      4092.9191      3241.8924      19424.142     -7020.6794     -85.072432      1.0728911      52390.048    
   6420000   506.89406      16884.147     -1402.862       4074.4619      3282.0615      19519.24      -6978.2325     -84.915958      1.0782214      52131.052    
   6440000   495.38455      16901.284     -1358.5895      4046.0406      3270.5867      19441.444     -6882.3449     -90.651626      1.0765383      52212.558    
   6460000   491.43113      16866.991     -1447.622       4065.9016      3246.6295      19627.03      -7014.5103     -86.459679      1.0837269      51866.221    
   6480000   502.00725      16831.099     -1425.6036      4068.9244      3219.9931      19540.075     -6957.307      -89.329826      1.0887703      51625.965    
   6500000   502.17346      16878.993     -1467.4485      4077.9809      3195.0926      19705.043     -7023.8512     -81.712276      1.0831956      51891.658    
   6520000   497.40095      16724.842     -1535.7246      4061.2004      3153.1475      19573.237     -6935.5348     -67.888883      1.0781819      52132.962    
   6540000   505.10441      16851.465     -1457.5158      4070.2361      3253.1734      19578.4       -6980.6927     -87.067833      1.0800907      52040.832    
   6560000   491.38531      16961.473     -1436.546       4114.4794      3257.7192      19528.18      -6898.6091     -78.97428       1.0823705      51931.215    
   6580000   504.93545      16829.58      -1465.6554      4085.413       3194.9588      19581.768     -6958.4185     -83.181653      1.0903576      51550.81     
   6600000   494.48002      16883.866     -1382.9315      4062.6184      3178.6299      19526.377     -6897.0637     -78.376883      1.088187       51653.639    
   6620000   497.03065      16926.705     -1479.8181      4076.4254      3266.0744      19559.995     -6889.1543     -80.694641      1.0828689      51907.316    
   6640000   498.99652      16914.475     -1405.904       4089.1523      3180.1228      19537.816     -6891.8057     -70.327978      1.0754036      52267.646    
   6660000   486.75644      16872.39      -1380.9683      4097.3373      3158.3863      19470.361     -6861.7297     -84.565669      1.0690536      52578.111    
   6680000   500.9699       16848.476     -1417.1246      4100.0883      3184.0966      19543.694     -6953.1858     -83.40685       1.0790288      52092.045    
   6700000   501.58283      17015.114     -1367.4182      4070.351       3198.082       19625.877     -6900.5204     -86.473852      1.080821       52005.669    
   6720000   501.97581      16980.918     -1387.6162      4088.2483      3196.7664      19609.932     -6919.56       -81.794656      1.0837958      51862.921    
   6740000   503.98693      16956.99      -1378.5538      4091.7903      3230.6096      19537.419     -6917.2681     -83.379484      1.0801325      52038.818    
   6760000   491.28143      16914.676     -1334.8178      4064.4816      3179.5781      19612.561     -6994.1337     -87.936829      1.0848963      51810.315    
   6780000   498.41879      16929.763     -1370.799       4057.8122      3175.0477      19648.686     -6970.3817     -85.567788      1.0824132      51929.169    
   6800000   499.14292      16700.672     -1424.42        4077.4006      3117.1358      19503.939     -6959.2096     -88.511838      1.0762654      52225.796    
   6820000   484.61879      16938.13      -1523.6636      4076.464       3262.025       19522.94      -6792.9454     -81.524657      1.0950492      51329.946    
   6840000   494.52603      16935.429     -1397.0965      4078.6398      3218.5649      19558.217     -6916.4732     -80.838147      1.0864581      51735.835    
   6860000   497.14608      16881.899     -1440.3159      4084.7051      3111.9059      19688.644     -6964.3987     -72.359394      1.0691569      52573.027    
   6880000   503.34279      16981.353     -1454.6236      4095.6301      3312.1875      19661.76      -7028.705      -79.063059      1.0844307      51832.559    
   6900000   499.48409      16884.271     -1465.6504      4074.4115      3198.7774      19575.973     -6909.6557     -64.038265      1.0899375      51570.677    
   6920000   495.38318      16698.411     -1448.4115      4072.7275      3113.6327      19505.149     -6934.013      -85.330109      1.0925587      51446.954    
   6940000   504.17272      16800.991     -1507.0033      4057.1318      3176.0645      19667.974     -6990.1861     -79.92298       1.0945386      51353.894    
   6960000   512.43451      16835.88      -1453.2773      4080.9826      3116.3451      19634.802     -6931.6745     -86.395669      1.0860341      51756.032    
   6980000   499.67295      16911.005     -1502.4328      4080.0996      3249.7675      19565.066     -6866.6627     -88.941495      1.0908827      51525.997    
   7000000   499.99163      16823.069     -1418.6673      4067.3846      3183.6504      19602.257     -6997.2079     -88.433489      1.0776852      52156.988    
   7020000   506.00131      16724.184     -1444.8237      4052.658       3143.5731      19490.323     -6909.6088     -82.780919      1.0997791      51109.186    
   7040000   495.44451      16882.746     -1408.5878      4054.8558      3205.9945      19567.413     -6932.8963     -79.404302      1.0859566      51759.726    
   7060000   494.35443      16777.827     -1501.1407      4056.8155      3178.7431      19515.124     -6864.2355     -81.21241       1.0916639      51489.125    
   7080000   499.24068      16876.317     -1484.169       4082.4834      3247.3455      19525.83      -6886.7099     -83.470056      1.0814573      51975.07     
   7100000   506.16646      17001.365     -1461.6667      4080.5276      3258.3788      19662.969     -6934.4422     -79.899279      1.0929336      51429.308    
   7120000   500.38841      17051.384     -1490.631       4064.775       3402.2572      19706.391     -7028.9995     -77.915901      1.0776306      52159.632    
   7140000   493.05645      16774.292     -1420.4916      4068.8706      3225.1988      19503.644     -6989.6637     -86.866546      1.0886511      51631.615    
   7160000   504.3207       16655.45      -1534.9485      4058.315       3020.26        19730.967     -7021.4193     -74.129073      1.0909218      51524.149    
   7180000   500.60099      16900.982     -1488.2975      4077.7744      3304.0528      19635.896     -7014.8225     -88.183638      1.0882081      51652.635    
   7200000   503.81794      16864.097     -1500.0617      4056.0856      3286.5325      19601.667     -6972.149      -84.028553      1.0832864      51887.31     
   7200088   492.62907      16932.803     -1488.4848      4058.3871      3274.0431      19645.408     -6964.3803     -68.914447      1.0828876      51906.421    
Loop time of 3895.57 on 24 procs for 1200000 steps with 4952 atoms

Performance: 6.654 ns/day, 3.607 hours/ns, 308.043 timesteps/s, 1.525 Matom-step/s
99.5% CPU use with 24 MPI tasks x no OpenMP threads

MPI task timing breakdown:
Section |  min time  |  avg time  |  max time  |%varavg| %total
---------------------------------------------------------------
Pair    | 1849.6     | 2140.1     | 2498.2     | 339.2 | 54.94
Bond    | 576.27     | 646.3      | 725.02     | 153.4 | 16.59
Kspace  | 507.61     | 899.2      | 1258.3     | 598.8 | 23.08
Neigh   | 36.303     | 36.343     | 36.375     |   0.3 |  0.93
Comm    | 126.42     | 128.33     | 129.94     |   8.9 |  3.29
Output  | 0.0036001  | 0.0039561  | 0.0113     |   2.4 |  0.00
Modify  | 30.714     | 32.924     | 34.379     |  17.3 |  0.85
Other   |            | 12.35      |            |       |  0.32

Nlocal:        206.333 ave         229 max         186 min
Histogram: 1 1 3 4 6 5 0 1 1 2
Nghost:        4715.04 ave        4743 max        4667 min
Histogram: 1 0 1 1 5 2 5 2 1 6
Neighs:        71312.5 ave       80661 max       58439 min
Histogram: 1 1 4 1 2 1 5 3 3 3

Total # of neighbors = 1711500
Ave neighs/atom = 345.61793
Ave special neighs/atom = 6.0500808
Neighbor list builds = 12711
Dangerous builds = 0
PPPM initialization ...
  using 12-bit tables for long-range coulomb (../kspace.cpp:342)
  G vector (1/distance) = 0.11802452
  grid = 4 4 4
  stencil order = 5
  estimated absolute RMS force accuracy = 0.31808587
  estimated relative force accuracy = 0.00095790615
  using double precision KISS FFT
  3d grid and FFT values/proc = 294 4
Generated 28 of 28 mixed pair_coeff terms from sixthpower/sixthpower mixing rule
Setting up Verlet run ...
  Unit style    : real
  Current step  : 7200088
  Time step     : 0.25
WARNING: Inconsistent image flags (../domain.cpp:815)
Per MPI rank memory allocation (min/avg/max) = 15.05 | 15.06 | 15.06 Mbytes
   Step          Temp          PotEng         E_vdwl         E_coul         E_bond        E_angle        E_dihed        E_impro        Density         Volume    
   7200088   492.62907      16932.809     -1488.4848      4058.5196      3274.0431      19645.408     -6964.3803     -68.914447      1.0828876      51906.421    
   7220000   486.23426      16639.475     -1572.5837      4080.8817      3160.9406      19562.93      -6979.9819     -88.119797      1.0889853      51615.771    
   7240000   487.40715      16540.015     -1576.415       4031.8718      3062.4396      19627.483     -7001.3638     -78.170663      1.0951576      51324.866    
   7260000   482.2629       16465.228     -1501.9947      4065.6769      3119.5623      19493.477     -7100.4352     -84.109611      1.0844191      51833.11     
   7280000   486.89707      16452.433     -1509.3948      4072.3644      3066.6991      19418.263     -6978.2504     -91.749919      1.090145       51560.862    
   7300000   469.80471      16602.826     -1530.5321      4065.0507      3131.8944      19545.693     -7013.0253     -70.241736      1.0873537      51693.222    
   7320000   478.87447      16802.596     -1494.9284      4059.4783      3136.062       19699.916     -6990.0088     -83.243583      1.0883102      51647.79     
   7340000   478.78286      16446.782     -1476.7519      4057.7737      3019.6414      19414.897     -6953.7759     -89.693598      1.0956879      51300.024    
   7360000   490.13532      16483.61      -1548.1745      4073.1552      3076.7034      19379.287     -6894.6317     -77.268469      1.0801915      52035.976    
   7380000   470.08213      16392.583     -1460.1933      4069.7113      3033.4362      19365.401     -7011.4077     -80.165461      1.0885258      51637.561    
   7400000   479.02942      16573.036     -1472.6159      4064.9269      3062.2821      19506.959     -6978.8272     -84.124815      1.0808809      52002.785    
   7420000   473.86428      16380.939     -1463.7303      4090.6034      2987.2957      19211.022     -6845.4597     -72.910098      1.0824395      51927.907    
   7440000   487.96378      16449.528     -1537.2778      4083.011       3103.742       19360.206     -6948.2295     -86.741802      1.0871339      51703.673    
   7460000   476.65207      16560.271     -1476.0959      4069.0285      3236.1039      19392.406     -7054.3951     -83.313672      1.0843061      51838.511    
   7480000   468.57333      16499.501     -1512.5786      4058.6343      3176.3207      19278.997     -6904.493      -72.117939      1.0906964      51534.794    
[...]
  23940000   219.29572      12230.261     -2081.6973      4048.2274      1589.4658      17664.512     -7372.8476     -65.247799      1.1625268      48350.554    
  23960000   219.66403      12257.293     -2060.1816      4064.381       1629.6275      17697.502     -7461.1039     -60.562513      1.1612739      48402.722    
  23980000   220.53302      12198.011     -2087.567       4057.1967      1581.0211      17656.379     -7384.5631     -71.501343      1.1557208      48635.292    
  24000000   220.94335      12212.941     -2052.4245      4043.4428      1628.2507      17639.115     -7428.0263     -64.267939      1.1664094      48189.613    
  24000088   220.34826      12215.413     -2050.2918      4037.2698      1619.4614      17585.734     -7357.9494     -66.043264      1.1676499      48138.416    
Loop time of 3887.7 on 24 procs for 1200000 steps with 4952 atoms

Performance: 6.667 ns/day, 3.600 hours/ns, 308.665 timesteps/s, 1.529 Matom-step/s
99.5% CPU use with 24 MPI tasks x no OpenMP threads

MPI task timing breakdown:
Section |  min time  |  avg time  |  max time  |%varavg| %total
---------------------------------------------------------------
Pair    | 1855.2     | 2273.8     | 2528.8     | 351.2 | 58.49
Bond    | 533.21     | 640.65     | 738.94     | 170.8 | 16.48
Kspace  | 500.57     | 778.21     | 1303       | 703.5 | 20.02
Neigh   | 18.485     | 18.514     | 18.537     |   0.4 |  0.48
Comm    | 129.38     | 131.05     | 132.6      |   8.4 |  3.37
Output  | 0.0054886  | 0.0061227  | 0.019894   |   3.7 |  0.00
Modify  | 30.958     | 33.13      | 34.818     |  17.8 |  0.85
Other   |            | 12.35      |            |       |  0.32

Nlocal:        206.333 ave         233 max         185 min
Histogram: 2 1 3 2 5 8 2 0 0 1
Nghost:        4958.67 ave        4993 max        4932 min
Histogram: 2 6 3 0 3 2 2 1 3 2
Neighs:        76534.5 ave       85425 max       62907 min
Histogram: 2 0 0 1 5 4 4 2 4 2

Total # of neighbors = 1836829
Ave neighs/atom = 370.9267
Ave special neighs/atom = 6.0500808
Neighbor list builds = 6395
Dangerous builds = 0
PPPM initialization ...
  using 12-bit tables for long-range coulomb (../kspace.cpp:342)
  G vector (1/distance) = 0.12017051
  grid = 4 4 4
  stencil order = 5
  estimated absolute RMS force accuracy = 0.3138407
  estimated relative force accuracy = 0.00094512196
  using double precision KISS FFT
  3d grid and FFT values/proc = 294 4
Generated 28 of 28 mixed pair_coeff terms from sixthpower/sixthpower mixing rule
Setting up Verlet run ...
  Unit style    : real
  Current step  : 24000088
  Time step     : 0.25
WARNING: Inconsistent image flags (../domain.cpp:815)
Per MPI rank memory allocation (min/avg/max) = 15.05 | 15.06 | 15.06 Mbytes
   Step          Temp          PotEng         E_vdwl         E_coul         E_bond        E_angle        E_dihed        E_impro        Density         Volume    
  24000088   220.34826      12215.422     -2050.2918      4037.7687      1619.4614      17585.734     -7357.9494     -66.043264      1.1676499      48138.416    
  24020000   201.52839      11929.474     -2082.9731      4062.1065      1475.8827      17479.745     -7393.2333     -58.263729      1.1639446      48291.66     
  24040000   196.60149      11907.609     -2081.2064      4052.9896      1457.4264      17469.671     -7370.9879     -67.293853      1.1635213      48309.23     
  24060000   204.26868      11882.22      -2110.4544      4055.6237      1438.4336      17474.301     -7358.1388     -64.136255      1.1630866      48327.285    
  24080000   197.15769      11930.819     -2067.5689      4057.5226      1486.6101      17517.415     -7440.3115     -70.081557      1.1626789      48344.23     
  24100000   197.98865      11908.873     -2135.9654      4069.2005      1506.2994      17491.345     -7408.1823     -60.662453      1.1664219      48189.094    
  24120000   201.57592      11934.931     -2072.0591      4030.3852      1522.8548      17429.217     -7352.132      -69.477837      1.1563118      48610.432    
  24140000   201.55008      11923.039     -2085.1424      4071.2842      1495.5436      17517.348     -7446.4277     -75.509398      1.1689724      48083.957    
  24160000   197.89589      11893.522     -2112.353       4062.3137      1491.2706      17473.326     -7405.8786     -61.140616      1.1649149      48251.437    
  24180000   200.42089      11908.954     -2081.6442      4060.6593      1510.7971      17429.707     -7389.2213     -68.232036      1.1645612      48266.09     
  24200000   200.05831      11933.567     -2104.9239      4058.3011      1488.5277      17531.278     -7419.9357     -65.604659      1.1621465      48366.379    
  24220000   201.97491      11918.161     -2119.8304      4049.8264      1478.9262      17512.326     -7381.0564     -68.112723      1.1697195      48053.245    
  24240000   200.82641      11886.155     -2158.6446      4031.1375      1529.8115      17521.562     -7417.3286     -66.559924      1.1659259      48209.597    
  24260000   203.24757      11928.873     -2077.1694      4060.7754      1509.4779      17523.567     -7467.9985     -66.175932      1.1670313      48163.934    
  24280000   201.90301      11958.845     -2116.661       4056.0309      1528.8893      17541.088     -7437.0916     -60.461981      1.1688091      48090.673    
  24300000   198.20111      11906.031     -2125.0408      4037.6199      1525.5828      17532.215     -7447.6442     -62.76519       1.164932       48250.726    
  24320000   199.55982      11893.221     -2084.8014      4054.3437      1478.64        17536.62      -7476.884      -60.861241      1.1565649      48599.794    
  24340000   202.03824      11931.201     -2085.8356      4045.7073      1490.0273      17507.111     -7416.8189     -55.564875      1.1690769      48079.658    
  24360000   201.54668      11978.362     -2098.3167      4070.2614      1505.2259      17546.418     -7432.083      -60.216976      1.1686882      48095.647    
  24380000   201.31765      11917.816     -2071.9253      4053.9602      1457.2711      17557.775     -7456.6048     -69.211034      1.1670677      48162.429    
  24400000   197.54352      11940.017     -2079.3168      4038.4139      1505.0926      17517.154     -7417.6959     -70.819294      1.1700177      48040.998    
  24420000   200.60995      11872.264     -2063.6567      4060.7134      1475.986       17417.638     -7394.0967     -70.061259      1.1652161      48238.965    
  24440000   201.45153      11883.012     -2114.9439      4029.7592      1496.0373      17503.321     -7411.975      -64.861449      1.1632048      48322.374    
  24460000   200.06414      11914.076     -2063.2242      4055.3546      1451.3159      17519.646     -7427.9146     -66.907538      1.1649048      48251.856    
  24480000   203.34728      11924.494     -2108.5876      4047.6626      1503.6102      17582.046     -7477.3644     -68.691097      1.1586116      48513.941    
  24500000   195.40018      11845.729     -2121.2497      4045.8209      1432.5828      17517.726     -7409.5615     -65.232553      1.1616618      48386.557    
  24520000   200.54906      11860.479     -2084.3155      4027.0964      1463.1664      17474.339     -7399.2207     -66.279859      1.1707872      48009.42     
  24540000   199.46848      11864.799     -2069.4838      4046.1685      1451.5208      17550.583     -7497.4432     -62.34077       1.168358       48109.241    
  24560000   200.4689       11942.378     -2100.7103      4048.8612      1501.5646      17564.12      -7448.1057     -69.515635      1.1638401      48295.996    
  24580000   195.42181      11938.155     -2089.6141      4044.0208      1499.8313      17554.184     -7457.8759     -57.914627      1.1574506      48562.606    
  24600000   201.25652      11913.8       -2078.8469      4045.1817      1474.2637      17555.777     -7457.2615     -71.170505      1.1628235      48338.218    
  24620000   203.62314      11923.841     -2074.3234      4028.1683      1462.6738      17551.974     -7427.9584     -63.0619        1.1648459      48254.294    
  24640000   200.83283      11941.247     -2105.1319      4027.8498      1519.8596      17475.204     -7359.9393     -62.68799       1.1671551      48158.825    
  24660000   203.96652      11991.356     -2062.5241      4049.6635      1469.7081      17492.498     -7340.0441     -64.700443      1.1613728      48398.601    
  24680000   200.24816      11920.716     -2097.673       4051.4703      1473.5514      17561.66      -7449.7348     -64.384376      1.1617082      48384.625    
  24700000   202.32309      11926.475     -2054.5081      4054.0465      1473.5171      17530.392     -7457.3889     -65.968868      1.1641791      48281.932    
  24720000   198.57895      11943.137     -2080.3892      4045.0633      1492.8109      17493.579     -7385.7585     -68.634829      1.1624811      48352.455    
  24740000   202.22072      11983.569     -2045.8464      4068.0494      1488.0403      17504.743     -7412.8935     -65.294091      1.1623666      48357.22     
  24760000   199.1655       11893.999     -2103.7859      4052.3115      1471.4125      17533.793     -7445.4501     -60.440293      1.1650953      48243.964    
  24780000   200.92895      11949.981     -2087.4469      4050.917       1491.1778      17543.482     -7428.4077     -66.582897      1.1646952      48260.538    
  24800000   200.5757       11822.76      -2073.6246      4043.4099      1445.2497      17477.831     -7452.7248     -63.861356      1.1582163      48530.499    
  24820000   199.31037      11889.108     -2096.9088      4070.2471      1406.7983      17567.191     -7447.4891     -57.256321      1.167778       48133.135    
  24840000   202.69593      11966.163     -2109.2826      4061.4222      1492.523       17547.783     -7405.5342     -67.234958      1.1647583      48257.925    
  24860000   200.07393      11890.826     -2085.3561      4057.9442      1441.6698      17605.558     -7508.3183     -67.045118      1.1638297      48296.429    
  24880000   201.30946      12003.234     -2126.0234      4060.9172      1531.8945      17538.264     -7384.1405     -64.012298      1.1641322      48283.878    
  24900000   201.11331      11950.901     -2132.6225      4065.9854      1505.8424      17603.731     -7477.4167     -60.812668      1.1620509      48370.356    
  24920000   199.27961      11907.696     -2123.9746      4049.7524      1497.9178      17528.325     -7426.7941     -63.874502      1.1618497      48378.732    
  24940000   201.34264      11921.996     -2088.5513      4050.9397      1476.8641      17552.052     -7453.5397     -63.479659      1.1679948      48124.199    
  24960000   197.7457       11918.006     -2108.7987      4067.4855      1512.709       17612.906     -7544.3343     -68.442886      1.1688666      48088.308    
  24980000   196.5527       11855.616     -2127.1921      4057.5237      1415.8377      17562.189     -7437.7737     -63.223167      1.169348       48068.511    
  25000000   200.0554       11908.908     -2095.9475      4044.0969      1475.1009      17528.124     -7421.7285     -68.379862      1.1678953      48128.302    
  25020000   196.78605      11948.546     -2085.0398      4047.7783      1493.7604      17537.369     -7425.5987     -66.683257      1.1614163      48396.787    
  25040000   198.97486      11907.172     -2074.5978      4056.9589      1478.3895      17509.966     -7445.9277     -65.870483      1.1649618      48249.492    
  25060000   198.62317      11947.546     -2063.1509      4037.9051      1480.7008      17520.952     -7417.6349     -59.130003      1.1681469      48117.937    
  25080000   203.16196      11903.704     -2085.3872      4047.0905      1499.3845      17498.215     -7436.7133     -65.261991      1.166178       48199.173    
  25100000   199.34961      11939.049     -2120.1146      4046.0668      1495.9537      17571.753     -7434.3968     -67.393437      1.1652685      48236.795    
  25120000   200.32317      11890.743     -2122.8095      4060.8543      1444.4572      17537.79      -7414.0299     -62.514169      1.1621078      48367.99     
  25140000   197.59256      11949.687     -2095.0708      4049.0525      1488.0836      17568.956     -7442.784      -66.25278       1.1585928      48514.731    
  25160000   196.82614      11922         -2063.8418      4041.043       1438.2648      17488.538     -7355.9544     -72.51062       1.1661231      48201.444    
  25180000   202.0777       11919.845     -2103.4874      4033.7116      1528.2881      17538.877     -7453.7496     -70.162696      1.1702215      48032.629    
  25200000   199.83033      11936.31      -2102.0174      4049.2927      1493.3716      17518.626     -7405.488      -64.772495      1.1657269      48217.826    
  25200088   200.22333      11932.972     -2111.4777      4040.52        1448.6022      17581.276     -7406.7827     -66.43936       1.1650181      48247.162    
Loop time of 3891.19 on 24 procs for 1200000 steps with 4952 atoms

Performance: 6.661 ns/day, 3.603 hours/ns, 308.389 timesteps/s, 1.527 Matom-step/s
99.5% CPU use with 24 MPI tasks x no OpenMP threads

MPI task timing breakdown:
Section |  min time  |  avg time  |  max time  |%varavg| %total
---------------------------------------------------------------
Pair    | 1829.8     | 2278.6     | 2531       | 353.8 | 58.56
Bond    | 526.03     | 640.19     | 731.9      | 175.9 | 16.45
Kspace  | 502.97     | 779.52     | 1341.2     | 713.7 | 20.03
Neigh   | 16.79      | 16.808     | 16.821     |   0.2 |  0.43
Comm    | 129.04     | 130.81     | 132.51     |   8.0 |  3.36
Output  | 0.0067611  | 0.0073752  | 0.020729   |   3.2 |  0.00
Modify  | 30.495     | 32.686     | 34.225     |  17.9 |  0.84
Other   |            | 12.53      |            |       |  0.32

Nlocal:        206.333 ave         224 max         182 min
Histogram: 2 1 2 0 4 3 3 2 4 3
Nghost:        4969.33 ave        5008 max        4926 min
Histogram: 1 2 3 2 3 2 4 3 1 3
Neighs:          76667 ave       87636 max       63029 min
Histogram: 2 0 1 2 4 4 6 1 2 2

Total # of neighbors = 1840008
Ave neighs/atom = 371.56866
Ave special neighs/atom = 6.0500808
Neighbor list builds = 5807
Dangerous builds = 0
PPPM initialization ...
  using 12-bit tables for long-range coulomb (../kspace.cpp:342)
  G vector (1/distance) = 0.12010597
  grid = 4 4 4
  stencil order = 5
  estimated absolute RMS force accuracy = 0.31397331
  estimated relative force accuracy = 0.0009455213
  using double precision KISS FFT
  3d grid and FFT values/proc = 294 4
Generated 28 of 28 mixed pair_coeff terms from sixthpower/sixthpower mixing rule
Setting up Verlet run ...
  Unit style    : real
  Current step  : 25200088
  Time step     : 0.25
WARNING: Inconsistent image flags (../domain.cpp:815)
Per MPI rank memory allocation (min/avg/max) = 15.05 | 15.06 | 15.06 Mbytes
   Step          Temp          PotEng         E_vdwl         E_coul         E_bond        E_angle        E_dihed        E_impro        Density         Volume    
  25200088   200.22333      11932.968     -2111.4777      4039.6846      1448.6022      17581.276     -7406.7827     -66.43936       1.1650181      48247.162    
  25220000   179.33036      11622.009     -2128.1619      4032.3883      1415.7499      17324.106     -7400.391      -68.710333      1.1698468      48048.014    
  25240000   179.80142      11663.324     -2147.7007      4047.8561      1408.5936      17436.509     -7470.2968     -59.941573      1.1609066      48418.034    
  25260000   177.87149      11705.611     -2091.5416      4028.6837      1402.1707      17398.314     -7412.9427     -66.453762      1.1662575      48195.887    
  25280000   178.16777      11625.479     -2113.5979      4050.6943      1389.7666      17276.232     -7356.0623     -69.237107      1.1651701      48240.869    
  25300000   177.73         11579.698     -2127.2275      4054.0139      1329.3059      17401.345     -7461.6273     -63.996553      1.1733491      47904.596    
  25320000   177.96614      11615.105     -2113.3267      4058.8385      1385.0043      17304.979     -7403.4239     -64.495802      1.1657151      48218.312    
  25340000   181.86588      11619.029     -2150.8769      4049.122       1374.5651      17428.766     -7467.3086     -63.132325      1.1687595      48092.714    
  25360000   182.33575      11626.459     -2158.635       4045.7687      1387.5697      17445.098     -7472.5961     -68.067665      1.1660069      48206.246    
  25380000   178.8254       11626.365     -2155.9945      4053.8501      1404.7732      17380.094     -7438.9517     -65.553468      1.1699151      48045.209    
  25400000   178.26865      11628.178     -2175.7196      4038.8833      1391.7622      17494.439     -7505.7936     -63.47834       1.1697369      48052.53     
  25420000   179.22619      11651.838     -2130.7128      4041.3935      1396.563       17431.475     -7468.9006     -66.04135       1.1704008      48025.27     
  25440000   175.47673      11558.629     -2121.5647      4046.2298      1334.298       17406.456     -7489.7467     -64.489994      1.1746321      47852.274    
  25460000   181.25003      11619.253     -2131.4508      4045.9691      1409.8626      17350.265     -7431.7012     -71.085848      1.1685146      48102.795    
  25480000   181.62838      11585.643     -2145.7469      4047.1036      1390.1008      17333.472     -7422.0755     -64.918834      1.1724932      47939.568    
  25500000   181.63864      11619.973     -2106.6594      4056.4124      1340.7778      17387.542     -7436.9701     -68.813356      1.1662196      48197.455    
  25520000   176.39666      11658.135     -2112.7912      4054.569       1325.5853      17430.661     -7420.6229     -66.46022       1.165518       48226.47     
  25540000   177.3143       11568.198     -2135.987       4059.4555      1361.2734      17377.636     -7472.9711     -68.137694      1.1693411      48068.794    
  25560000   178.41041      11618.48      -2129.2404      4070.8732      1344.579       17371.987     -7417.4368     -69.502825      1.1700492      48039.702    
  25580000   180.44202      11642.999     -2093.3134      4049.0571      1343.4212      17407.428     -7448.2179     -63.468301      1.1723934      47943.648    
  25600000   180.47135      11604.325     -2173.7658      4067.1386      1399.0241      17383.341     -7453.7586     -65.450534      1.1692535      48072.395    
  25620000   179.6093       11646.895     -2098.2053      4050.8954      1369.7216      17381.106     -7435.0057     -69.115917      1.1700786      48038.498    
  25640000   180.50996      11587.593     -2142.9547      4042.8149      1363.6315      17342.461     -7406.926      -59.310819      1.1715981      47976.195    
  25660000   181.52491      11588.528     -2143.9344      4052.5745      1374.2392      17380.041     -7453.9132     -68.72876       1.1704684      48022.498    
  25680000   175.89937      11616.291     -2099.3678      4037.1949      1414.3851      17334.405     -7454.1669     -64.462904      1.1703897      48025.729    
  25700000   178.47181      11665.48      -2087.6568      4049.6255      1378.5529      17385.123     -7441.5324     -66.528438      1.1674102      48148.298    
  25720000   178.45845      11636.17      -2121.0135      4042.8534      1364.9527      17446.194     -7481.3524     -63.104698      1.1677349      48134.91     
  25740000   179.44776      11587.004     -2090.9082      4049.4827      1316.8142      17332.796     -7405.0586     -63.29625       1.1631055      48326.498    
  25760000   180.02245      11612.937     -2163.0485      4047.789       1400.62        17350.697     -7406.0706     -64.625056      1.1736517      47892.246    
  25780000   179.82026      11636.978     -2095.5647      4067.3014      1354.431       17332.14      -7407.796      -61.856152      1.1722425      47949.82     
