LAMMPS output created by EMC v9.4.4, build Jul 27 2022 18:02:20

          74  atoms
          85  bonds
         186  angles
         348  dihedrals
         120  impropers

           7  atom types
           9  bond types
          19  angle types
          36  dihedral types
          22  improper types

             0    20.17642763  xlo xhi
             0    20.17642763  ylo yhi
             0    20.17642763  zlo zhi

Masses

       1   12.01115  # c
       2   12.01115  # c1
       3    1.00797  # h
       4    1.00797  # hc
       5   15.99940  # o3e
       6   15.99940  # oc
       7   15.99940  # oh

Atoms

       1       1   7 -0.5571  13.9556516049   6.6694699521   2.8541141516  # oh
       2       1   3  0.4241  14.4260397098   6.1451707491   2.1651871051  # h
       3       1   2  0.0800  12.7625980323   6.0573914032   3.1239938264  # c1
       4       1   4  0.0530  12.4205469098   6.4954063558   4.0829002042  # hc
       5       1   2  0.0800  12.8447300494   4.6117929349   3.3351648174  # c1
       6       1   4  0.0530  13.1149914302   4.1710455477   2.3782138451  # hc
       7       1   6 -0.2660  13.6422275862   4.2193893337   4.4517779700  # oc
       8       1   2  0.0800  15.0683446665   4.0954591298   4.6025495519  # c1
       9       1   4  0.0530  15.6363181214   4.8320313997   4.0223151744  # hc
      10       1   2  0.0800  15.0267479248   4.2436884499   6.1497780873  # c1
      11       1   4  0.0530  14.4258279023   5.1762480547   6.3197598887  # hc
      12       1   6 -0.2660  16.3572527605   4.5055307710   6.5743267039  # oc
      13       1   2  0.0800  16.5890049127   5.4676669956   7.6571029291  # c1
      14       1   4  0.0530  15.6004658650   5.5780023105   8.1777166489  # hc
      15       1   1 -0.1060  17.0431067543   6.8450437859   7.1284792821  # c
      16       1   4  0.0530  16.9811265837   7.5433524009   8.0560705057  # hc
      17       1   4  0.0530  16.4539851303   7.2895097685   6.2470973388  # hc
      18       1   1 -0.1060  18.5342414805   6.5564271940   6.8006909881  # c
      19       1   4  0.0530  19.1155149404   7.5473070402   6.7343421682  # hc
      20       1   4  0.0530  18.7238135999   6.0758230274   5.8033845673  # hc
      21       1   2 -0.0530  19.0154654520   5.7359776840   8.0667022232  # c1
      22       1   4  0.0530  19.4588059125   6.3796200137   8.8157659239  # hc
      23       1   2 -0.0530  19.7280492479   4.3732855083   7.9420936607  # c1
      24       1   4  0.0530  20.7284761539   4.3997975675   7.5705264315  # hc
      25       1   1 -0.1060  19.5677357209   3.9461017443   9.4108550179  # c
      26       1   4  0.0530  19.9870927372   2.9893125380   9.7332794261  # hc
      27       1   4  0.0530  19.7768157056   4.7738780129  10.1966976740  # hc
      28       1   2 -0.0530  18.0915841966   3.7184906433   9.2075854242  # c1
      29       1   4  0.0530  17.4036697425   3.5069709457  10.0279971398  # hc
      30       1   2  0.0800  17.9805367541   2.7529153938   8.0011320911  # c1
      31       1   4  0.0530  17.0092213483   2.3004230647   7.6597921612  # hc
      32       1   2  0.0800  18.9998079369   3.2335019231   7.1150708471  # c1
      33       1   4  0.0530  18.8872480506   3.3290407720   5.9400984486  # hc
      34       1   5 -0.2660  19.1251795410   1.9320111844   7.7435732314  # o3e
      35       1   2 -0.0530  17.6489562502   5.1675686428   8.7153160598  # c1
      36       1   4  0.0530  17.3684308593   5.7968833426   9.6186716885  # hc
      37       1   1 -0.1060  14.4193696238   2.8645194911   6.5612876633  # c
      38       1   4  0.0530  13.3199607577   2.9749522981   6.6146909189  # hc
      39       1   4  0.0530  14.5754079390   2.4049223107   7.5480308513  # hc
      40       1   2 -0.0530  14.8575661218   1.8825752885   5.4469957382  # c1
      41       1   4  0.0530  15.4643866576   1.1318481093   5.8801069363  # hc
      42       1   2 -0.0530  13.8159762704   1.2693411030   4.4841370669  # c1
      43       1   4  0.0530  12.9672111494   0.7957143022   5.0299866522  # hc
      44       1   1 -0.1060  14.7819997178   0.3665378616   3.8113438325  # c
      45       1   4  0.0530  14.2330295264  -0.2382350477   3.0651333393  # hc
      46       1   4  0.0530  15.3589499220  -0.3065546340   4.3859905133  # hc
      47       1   2 -0.0530  15.5268772251   1.6534418187   3.1957488249  # c1
      48       1   4  0.0530  16.5167011134   1.3840982798   2.8702662848  # hc
      49       1   2  0.0800  14.6400882770   2.0638481602   2.0323934788  # c1
      50       1   4  0.0530  15.0130087000   1.3244579812   1.2612547583  # hc
      51       1   2  0.0800  13.3933861008   2.0725877450   3.0941334559  # c1
      52       1   4  0.0530  12.4013489747   1.6015387895   3.1422449577  # hc
      53       1   5 -0.2660  13.3966101687   1.4174715290   1.7811370404  # o3e
      54       1   2 -0.0530  15.6883759855   2.6585551373   4.4065103953  # c1
      55       1   4  0.0530  16.7181520565   2.5693258810   4.8047910724  # hc
      56       1   1 -0.1060  11.3719426633   4.2461114213   3.5581168133  # c
      57       1   4  0.0530  11.1191630197   3.1381104673   3.4558417532  # hc
      58       1   4  0.0530  11.1953963702   4.3630065000   4.6183647239  # hc
      59       1   2 -0.0530  10.6045708027   5.1506078543   2.5619945840  # c1
      60       1   4  0.0530  10.4103249620   4.5182601796   1.6790218344  # hc
      61       1   2 -0.0530   9.3947292747   6.1368776588   2.7780984292  # c1
      62       1   4  0.0530   8.3307420928   6.1178863780   2.5904867298  # hc
      63       1   1 -0.1060   9.6348809527   6.8076811446   1.4181518033  # c
      64       1   4  0.0530   9.8480529793   6.1142574050   0.5284717446  # hc
      65       1   4  0.0530   8.8401247963   7.4274247732   1.1015991653  # hc
      66       1   2 -0.0530  10.8736654024   7.4714817632   1.9314937547  # c1
      67       1   4  0.0530  11.2526062580   8.1711711147   1.1900277562  # hc
      68       1   2  0.0800  10.4854822794   8.0820403226   3.3778446324  # c1
      69       1   4  0.0530  11.2788490941   8.6328712678   3.9353536650  # hc
      70       1   2  0.0800   9.4990802410   7.2176374796   3.9481512046  # c1
      71       1   4  0.0530   8.8268499977   7.2971608043   4.7973041520  # hc
      72       1   5 -0.2660   9.1536638543   8.5599609968   3.3131110746  # o3e
      73       1   2 -0.0530  11.6476079750   6.1948664464   2.1035542884  # c1
      74       1   4  0.0530  11.9974764425   5.9293942372   1.1177746050  # hc

Bonds

       1       8       3       1  # c1,oh
       2       9       2       1  # h,oh
       3       4       3       5  # c1,c1
       4       4       3      73  # c1,c1
       5       5       3       4  # c1,hc
       6       2      56       5  # c,c1
       7       7       5       7  # c1,oc
       8       5       5       6  # c1,hc
       9       7       8       7  # c1,oc
      10       4       8      10  # c1,c1
      11       4       8      54  # c1,c1
      12       5       8       9  # c1,hc
      13       2      37      10  # c,c1
      14       7      10      12  # c1,oc
      15       5      10      11  # c1,hc
      16       7      13      12  # c1,oc
      17       2      15      13  # c,c1
      18       4      13      35  # c1,c1
      19       5      13      14  # c1,hc
      20       1      15      18  # c,c
      21       3      15      16  # c,hc
      22       3      15      17  # c,hc
      23       2      18      21  # c,c1
      24       3      18      19  # c,hc
      25       3      18      20  # c,hc
      26       4      21      23  # c1,c1
      27       4      21      35  # c1,c1
      28       5      21      22  # c1,hc
      29       2      25      23  # c,c1
      30       4      23      32  # c1,c1
      31       5      23      24  # c1,hc
      32       2      25      28  # c,c1
      33       3      25      26  # c,hc
      34       3      25      27  # c,hc
      35       4      28      35  # c1,c1
      36       4      28      30  # c1,c1
      37       5      28      29  # c1,hc
      38       4      30      32  # c1,c1
      39       6      30      34  # c1,o3e
      40       5      30      31  # c1,hc
      41       6      32      34  # c1,o3e
      42       5      32      33  # c1,hc
      43       5      35      36  # c1,hc
      44       2      37      40  # c,c1
      45       3      37      38  # c,hc
      46       3      37      39  # c,hc
      47       4      40      42  # c1,c1
      48       4      40      54  # c1,c1
      49       5      40      41  # c1,hc
      50       2      44      42  # c,c1
      51       4      42      51  # c1,c1
      52       5      42      43  # c1,hc
      53       2      44      47  # c,c1
      54       3      44      45  # c,hc
      55       3      44      46  # c,hc
      56       4      47      54  # c1,c1
      57       4      47      49  # c1,c1
      58       5      47      48  # c1,hc
      59       4      49      51  # c1,c1
      60       6      49      53  # c1,o3e
      61       5      49      50  # c1,hc
      62       6      51      53  # c1,o3e
      63       5      51      52  # c1,hc
      64       5      54      55  # c1,hc
      65       2      56      59  # c,c1
      66       3      56      57  # c,hc
      67       3      56      58  # c,hc
      68       4      59      61  # c1,c1
      69       4      59      73  # c1,c1
      70       5      59      60  # c1,hc
      71       2      63      61  # c,c1
      72       4      61      70  # c1,c1
      73       5      61      62  # c1,hc
      74       2      63      66  # c,c1
      75       3      63      64  # c,hc
      76       3      63      65  # c,hc
      77       4      66      73  # c1,c1
      78       4      66      68  # c1,c1
      79       5      66      67  # c1,hc
      80       4      68      70  # c1,c1
      81       6      68      72  # c1,o3e
      82       5      68      69  # c1,hc
      83       6      70      72  # c1,o3e
      84       5      70      71  # c1,hc
      85       5      73      74  # c1,hc

Angles

       1      12       5       3       1  # c1,c1,oh
       2      12      73       3       1  # c1,c1,oh
       3      19       4       3       1  # hc,c1,oh
       4      15       3       1       2  # c1,oh,h
       5       3      56       5       3  # c,c1,c1
       6      11       3       5       7  # c1,c1,oc
       7       9       3       5       6  # c1,c1,hc
       8       8       3      73      66  # c1,c1,c1
       9       8       3      73      59  # c1,c1,c1
      10       9       3      73      74  # c1,c1,hc
      11       9       5       3       4  # c1,c1,hc
      12       9      73       3       4  # c1,c1,hc
      13       8       5       3      73  # c1,c1,c1
      14       6       5      56      59  # c1,c,c1
      15       7       5      56      57  # c1,c,hc
      16       7       5      56      58  # c1,c,hc
      17      14       5       7       8  # c1,oc,c1
      18       4      56       5       6  # c,c1,hc
      19      18       6       5       7  # hc,c1,oc
      20       5      56       5       7  # c,c1,oc
      21      11      10       8       7  # c1,c1,oc
      22      11      54       8       7  # c1,c1,oc
      23      18       9       8       7  # hc,c1,oc
      24       3      37      10       8  # c,c1,c1
      25      11       8      10      12  # c1,c1,oc
      26       9       8      10      11  # c1,c1,hc
      27       8       8      54      47  # c1,c1,c1
      28       8       8      54      40  # c1,c1,c1
      29       9       8      54      55  # c1,c1,hc
      30       9      10       8       9  # c1,c1,hc
      31       9      54       8       9  # c1,c1,hc
      32       8      10       8      54  # c1,c1,c1
      33       6      10      37      40  # c1,c,c1
      34       7      10      37      38  # c1,c,hc
      35       7      10      37      39  # c1,c,hc
      36      14      10      12      13  # c1,oc,c1
      37       4      37      10      11  # c,c1,hc
      38      18      11      10      12  # hc,c1,oc
      39       5      37      10      12  # c,c1,oc
      40       5      15      13      12  # c,c1,oc
      41      11      35      13      12  # c1,c1,oc
      42      18      14      13      12  # hc,c1,oc
      43       1      18      15      13  # c,c,c1
      44       7      13      15      16  # c1,c,hc
      45       7      13      15      17  # c1,c,hc
      46       8      13      35      28  # c1,c1,c1
      47       8      13      35      21  # c1,c1,c1
      48       9      13      35      36  # c1,c1,hc
      49       4      15      13      14  # c,c1,hc
      50       9      35      13      14  # c1,c1,hc
      51       3      15      13      35  # c,c1,c1
      52       1      15      18      21  # c,c,c1
      53       2      15      18      19  # c,c,hc
      54       2      15      18      20  # c,c,hc
      55       2      18      15      16  # c,c,hc
      56      16      16      15      17  # hc,c,hc
      57       2      18      15      17  # c,c,hc
      58       3      18      21      23  # c,c1,c1
      59       3      18      21      35  # c,c1,c1
      60       4      18      21      22  # c,c1,hc
      61       7      21      18      19  # c1,c,hc
      62      16      19      18      20  # hc,c,hc
      63       7      21      18      20  # c1,c,hc
      64       3      25      23      21  # c,c1,c1
      65       8      21      23      32  # c1,c1,c1
      66       9      21      23      24  # c1,c1,hc
      67       8      21      35      28  # c1,c1,c1
      68       9      21      35      36  # c1,c1,hc
      69       9      23      21      22  # c1,c1,hc
      70       9      35      21      22  # c1,c1,hc
      71       8      23      21      35  # c1,c1,c1
      72       6      23      25      28  # c1,c,c1
      73       7      23      25      26  # c1,c,hc
      74       7      23      25      27  # c1,c,hc
      75       8      23      32      30  # c1,c1,c1
      76      10      23      32      34  # c1,c1,o3e
      77       9      23      32      33  # c1,c1,hc
      78       4      25      23      24  # c,c1,hc
      79       9      32      23      24  # c1,c1,hc
      80       3      25      23      32  # c,c1,c1
      81       3      25      28      35  # c,c1,c1
      82       3      25      28      30  # c,c1,c1
      83       4      25      28      29  # c,c1,hc
      84       7      28      25      26  # c1,c,hc
      85      16      26      25      27  # hc,c,hc
      86       7      28      25      27  # c1,c,hc
      87       9      28      35      36  # c1,c1,hc
      88       8      28      30      32  # c1,c1,c1
      89      10      28      30      34  # c1,c1,o3e
      90       9      28      30      31  # c1,c1,hc
      91       9      35      28      29  # c1,c1,hc
      92       9      30      28      29  # c1,c1,hc
      93       8      30      28      35  # c1,c1,c1
      94      10      30      32      34  # c1,c1,o3e
      95       9      30      32      33  # c1,c1,hc
      96      13      30      34      32  # c1,o3e,c1
      97       9      32      30      31  # c1,c1,hc
      98      17      31      30      34  # hc,c1,o3e
      99      10      32      30      34  # c1,c1,o3e
     100      17      33      32      34  # hc,c1,o3e
     101       3      37      40      42  # c,c1,c1
     102       3      37      40      54  # c,c1,c1
     103       4      37      40      41  # c,c1,hc
     104       7      40      37      38  # c1,c,hc
     105      16      38      37      39  # hc,c,hc
     106       7      40      37      39  # c1,c,hc
     107       3      44      42      40  # c,c1,c1
     108       8      40      42      51  # c1,c1,c1
     109       9      40      42      43  # c1,c1,hc
     110       8      40      54      47  # c1,c1,c1
     111       9      40      54      55  # c1,c1,hc
     112       9      42      40      41  # c1,c1,hc
     113       9      54      40      41  # c1,c1,hc
     114       8      42      40      54  # c1,c1,c1
     115       6      42      44      47  # c1,c,c1
     116       7      42      44      45  # c1,c,hc
     117       7      42      44      46  # c1,c,hc
     118       8      42      51      49  # c1,c1,c1
     119      10      42      51      53  # c1,c1,o3e
     120       9      42      51      52  # c1,c1,hc
     121       4      44      42      43  # c,c1,hc
     122       9      51      42      43  # c1,c1,hc
     123       3      44      42      51  # c,c1,c1
     124       3      44      47      54  # c,c1,c1
     125       3      44      47      49  # c,c1,c1
     126       4      44      47      48  # c,c1,hc
     127       7      47      44      45  # c1,c,hc
     128      16      45      44      46  # hc,c,hc
     129       7      47      44      46  # c1,c,hc
     130       9      47      54      55  # c1,c1,hc
     131       8      47      49      51  # c1,c1,c1
     132      10      47      49      53  # c1,c1,o3e
     133       9      47      49      50  # c1,c1,hc
     134       9      54      47      48  # c1,c1,hc
     135       9      49      47      48  # c1,c1,hc
     136       8      49      47      54  # c1,c1,c1
     137      10      49      51      53  # c1,c1,o3e
     138       9      49      51      52  # c1,c1,hc
     139      13      49      53      51  # c1,o3e,c1
     140       9      51      49      50  # c1,c1,hc
     141      17      50      49      53  # hc,c1,o3e
     142      10      51      49      53  # c1,c1,o3e
     143      17      52      51      53  # hc,c1,o3e
     144       3      56      59      61  # c,c1,c1
     145       3      56      59      73  # c,c1,c1
     146       4      56      59      60  # c,c1,hc
     147       7      59      56      57  # c1,c,hc
     148      16      57      56      58  # hc,c,hc
     149       7      59      56      58  # c1,c,hc
     150       3      63      61      59  # c,c1,c1
     151       8      59      61      70  # c1,c1,c1
     152       9      59      61      62  # c1,c1,hc
     153       8      59      73      66  # c1,c1,c1
     154       9      59      73      74  # c1,c1,hc
     155       9      61      59      60  # c1,c1,hc
     156       9      73      59      60  # c1,c1,hc
     157       8      61      59      73  # c1,c1,c1
     158       6      61      63      66  # c1,c,c1
     159       7      61      63      64  # c1,c,hc
     160       7      61      63      65  # c1,c,hc
     161       8      61      70      68  # c1,c1,c1
     162      10      61      70      72  # c1,c1,o3e
     163       9      61      70      71  # c1,c1,hc
     164       4      63      61      62  # c,c1,hc
     165       9      70      61      62  # c1,c1,hc
     166       3      63      61      70  # c,c1,c1
     167       3      63      66      73  # c,c1,c1
     168       3      63      66      68  # c,c1,c1
     169       4      63      66      67  # c,c1,hc
     170       7      66      63      64  # c1,c,hc
     171      16      64      63      65  # hc,c,hc
     172       7      66      63      65  # c1,c,hc
     173       9      66      73      74  # c1,c1,hc
     174       8      66      68      70  # c1,c1,c1
     175      10      66      68      72  # c1,c1,o3e
     176       9      66      68      69  # c1,c1,hc
     177       9      73      66      67  # c1,c1,hc
     178       9      68      66      67  # c1,c1,hc
     179       8      68      66      73  # c1,c1,c1
     180      10      68      70      72  # c1,c1,o3e
     181       9      68      70      71  # c1,c1,hc
     182      13      68      72      70  # c1,o3e,c1
     183       9      70      68      69  # c1,c1,hc
     184      17      69      68      72  # hc,c1,o3e
     185      10      70      68      72  # c1,c1,o3e
     186      17      71      70      72  # hc,c1,o3e

Dihedrals

       1       9      56       5       3       1  # c,c1,c1,oh
       2      36       7       5       3       1  # oc,c1,c1,oh
       3      34       6       5       3       1  # hc,c1,c1,oh
       4      21      66      73       3       1  # c1,c1,c1,oh
       5      21      59      73       3       1  # c1,c1,c1,oh
       6      34      74      73       3       1  # hc,c1,c1,oh
       7      24       5       3       1       2  # c1,c1,oh,h
       8      24      73       3       1       2  # c1,c1,oh,h
       9      27       2       1       3       4  # h,oh,c1,hc
      10      13      59      56       5       3  # c1,c,c1,c1
      11      16       3       5      56      57  # c1,c1,c,hc
      12      16       3       5      56      58  # c1,c1,c,hc
      13      23       3       5       7       8  # c1,c1,oc,c1
      14       5      63      66      73       3  # c,c1,c1,c1
      15      17       3      73      66      68  # c1,c1,c1,c1
      16      18       3      73      66      67  # c1,c1,c1,hc
      17       5      56      59      73       3  # c,c1,c1,c1
      18      17       3      73      59      61  # c1,c1,c1,c1
      19      18       3      73      59      60  # c1,c1,c1,hc
      20       6      56       5       3       4  # c,c1,c1,hc
      21      33       4       3       5       7  # hc,c1,c1,oc
      22      31       4       3       5       6  # hc,c1,c1,hc
      23      18      66      73       3       4  # c1,c1,c1,hc
      24      18      59      73       3       4  # c1,c1,c1,hc
      25      31       4       3      73      74  # hc,c1,c1,hc
      26      17       5       3      73      66  # c1,c1,c1,c1
      27      17       5       3      73      59  # c1,c1,c1,c1
      28      18       5       3      73      74  # c1,c1,c1,hc
      29      13       5      56      59      61  # c1,c,c1,c1
      30      13       5      56      59      73  # c1,c,c1,c1
      31      14       5      56      59      60  # c1,c,c1,hc
      32      23      10       8       7       5  # c1,c1,oc,c1
      33      23      54       8       7       5  # c1,c1,oc,c1
      34      26       5       7       8       9  # c1,oc,c1,hc
      35      18      73       3       5       6  # c1,c1,c1,hc
      36      14      59      56       5       6  # c1,c,c1,hc
      37      29      57      56       5       6  # hc,c,c1,hc
      38      29      58      56       5       6  # hc,c,c1,hc
      39      26       8       7       5       6  # c1,oc,c1,hc
      40      20      73       3       5       7  # c1,c1,c1,oc
      41      15      59      56       5       7  # c1,c,c1,oc
      42      30      57      56       5       7  # hc,c,c1,oc
      43      30      58      56       5       7  # hc,c,c1,oc
      44       8      37      10       8       7  # c,c1,c1,oc
      45      35       7       8      10      12  # oc,c1,c1,oc
      46      33      11      10       8       7  # hc,c1,c1,oc
      47      20      47      54       8       7  # c1,c1,c1,oc
      48      20      40      54       8       7  # c1,c1,c1,oc
      49      33      55      54       8       7  # hc,c1,c1,oc
      50      10      56       5       7       8  # c,c1,oc,c1
      51      13      40      37      10       8  # c1,c,c1,c1
      52      16       8      10      37      38  # c1,c1,c,hc
      53      16       8      10      37      39  # c1,c1,c,hc
      54      23       8      10      12      13  # c1,c1,oc,c1
      55       5      44      47      54       8  # c,c1,c1,c1
      56      17       8      54      47      49  # c1,c1,c1,c1
      57      18       8      54      47      48  # c1,c1,c1,hc
      58       5      37      40      54       8  # c,c1,c1,c1
      59      17       8      54      40      42  # c1,c1,c1,c1
      60      18       8      54      40      41  # c1,c1,c1,hc
      61       6      37      10       8       9  # c,c1,c1,hc
      62      33       9       8      10      12  # hc,c1,c1,oc
      63      31       9       8      10      11  # hc,c1,c1,hc
      64      18      47      54       8       9  # c1,c1,c1,hc
      65      18      40      54       8       9  # c1,c1,c1,hc
      66      31       9       8      54      55  # hc,c1,c1,hc
      67      17      10       8      54      47  # c1,c1,c1,c1
      68      17      10       8      54      40  # c1,c1,c1,c1
      69      18      10       8      54      55  # c1,c1,c1,hc
      70      13      10      37      40      42  # c1,c,c1,c1
      71      13      10      37      40      54  # c1,c,c1,c1
      72      14      10      37      40      41  # c1,c,c1,hc
      73      10      15      13      12      10  # c,c1,oc,c1
      74      23      35      13      12      10  # c1,c1,oc,c1
      75      26      10      12      13      14  # c1,oc,c1,hc
      76      18      54       8      10      11  # c1,c1,c1,hc
      77      14      40      37      10      11  # c1,c,c1,hc
      78      29      38      37      10      11  # hc,c,c1,hc
      79      29      39      37      10      11  # hc,c,c1,hc
      80      26      13      12      10      11  # c1,oc,c1,hc
      81      20      54       8      10      12  # c1,c1,c1,oc
      82      15      40      37      10      12  # c1,c,c1,oc
      83      30      38      37      10      12  # hc,c,c1,oc
      84      30      39      37      10      12  # hc,c,c1,oc
      85       3      18      15      13      12  # c,c,c1,oc
      86      30      16      15      13      12  # hc,c,c1,oc
      87      30      17      15      13      12  # hc,c,c1,oc
      88      20      28      35      13      12  # c1,c1,c1,oc
      89      20      21      35      13      12  # c1,c1,c1,oc
      90      33      36      35      13      12  # hc,c1,c1,oc
      91      10      37      10      12      13  # c,c1,oc,c1
      92      11      13      15      18      21  # c1,c,c,c1
      93      12      13      15      18      19  # c1,c,c,hc
      94      12      13      15      18      20  # c1,c,c,hc
      95       5      25      28      35      13  # c,c1,c1,c1
      96      17      13      35      28      30  # c1,c1,c1,c1
      97      18      13      35      28      29  # c1,c1,c1,hc
      98       5      18      21      35      13  # c,c1,c1,c1
      99      17      13      35      21      23  # c1,c1,c1,c1
     100      18      13      35      21      22  # c1,c1,c1,hc
     101       2      18      15      13      14  # c,c,c1,hc
     102      29      16      15      13      14  # hc,c,c1,hc
     103      29      17      15      13      14  # hc,c,c1,hc
     104      18      28      35      13      14  # c1,c1,c1,hc
     105      18      21      35      13      14  # c1,c1,c1,hc
     106      31      14      13      35      36  # hc,c1,c1,hc
     107       5      15      13      35      28  # c,c1,c1,c1
     108       5      15      13      35      21  # c,c1,c1,c1
     109       6      15      13      35      36  # c,c1,c1,hc
     110       1      15      18      21      23  # c,c,c1,c1
     111       1      15      18      21      35  # c,c,c1,c1
     112       2      15      18      21      22  # c,c,c1,hc
     113      16      35      13      15      16  # c1,c1,c,hc
     114      12      21      18      15      16  # c1,c,c,hc
     115      28      16      15      18      19  # hc,c,c,hc
     116      28      16      15      18      20  # hc,c,c,hc
     117      16      35      13      15      17  # c1,c1,c,hc
     118      12      21      18      15      17  # c1,c,c,hc
     119      28      17      15      18      19  # hc,c,c,hc
     120      28      17      15      18      20  # hc,c,c,hc
     121       1      18      15      13      35  # c,c,c1,c1
     122       4      18      21      23      25  # c,c1,c1,c
     123       5      18      21      23      32  # c,c1,c1,c1
     124       6      18      21      23      24  # c,c1,c1,hc
     125       5      18      21      35      28  # c,c1,c1,c1
     126       6      18      21      35      36  # c,c1,c1,hc
     127      16      23      21      18      19  # c1,c1,c,hc
     128      16      35      21      18      19  # c1,c1,c,hc
     129      29      19      18      21      22  # hc,c,c1,hc
     130      16      23      21      18      20  # c1,c1,c,hc
     131      16      35      21      18      20  # c1,c1,c,hc
     132      29      20      18      21      22  # hc,c,c1,hc
     133      13      28      25      23      21  # c1,c,c1,c1
     134      16      21      23      25      26  # c1,c1,c,hc
     135      16      21      23      25      27  # c1,c1,c,hc
     136      17      21      23      32      30  # c1,c1,c1,c1
     137      19      21      23      32      34  # c1,c1,c1,o3e
     138      18      21      23      32      33  # c1,c1,c1,hc
     139       5      25      28      35      21  # c,c1,c1,c1
     140      17      21      35      28      30  # c1,c1,c1,c1
     141      18      21      35      28      29  # c1,c1,c1,hc
     142       6      25      23      21      22  # c,c1,c1,hc
     143      18      32      23      21      22  # c1,c1,c1,hc
     144      31      22      21      23      24  # hc,c1,c1,hc
     145      18      28      35      21      22  # c1,c1,c1,hc
     146      31      22      21      35      36  # hc,c1,c1,hc
     147      17      23      21      35      28  # c1,c1,c1,c1
     148      18      23      21      35      36  # c1,c1,c1,hc
     149      13      23      25      28      35  # c1,c,c1,c1
     150      13      23      25      28      30  # c1,c,c1,c1
     151      14      23      25      28      29  # c1,c,c1,hc
     152      17      23      32      30      28  # c1,c1,c1,c1
     153      19      23      32      30      34  # c1,c1,c1,o3e
     154      18      23      32      30      31  # c1,c1,c1,hc
     155      22      23      32      34      30  # c1,c1,o3e,c1
     156      18      35      21      23      24  # c1,c1,c1,hc
     157      14      28      25      23      24  # c1,c,c1,hc
     158      29      26      25      23      24  # hc,c,c1,hc
     159      29      27      25      23      24  # hc,c,c1,hc