LAMMPS (22 Dec 2022)
WARNING: Using I/O redirection is unreliable with parallel runs. Better to use the -in switch to read input files. (../lammps.cpp:531)
# PREREQUISITES:
#
#     You must use moltemplate.sh to create 3 files:
#        system.data  system.in.init  system.in.settings
#     (Follow the instructions in README_setup.sh,
#      or run the file as a script using ./README_setup.sh)

# ------------------------------- Initialization Section --------------------

units real
atom_style full
pair_style lj/class2/coul/cut 10.0
bond_style class2
angle_style class2
dihedral_style class2
improper_style class2


# ------------------------------- Atom Definition Section -------------------

read_data       "pre_mol.data" extra/bond/per/atom 1 extra/angle/per/atom 12 extra/dihedral/per/atom 12 extra/improper/per/atom 12 extra/special/per/atom 12
Reading data file ...
  orthogonal box = (0 0 0) to (20.176428 20.176428 20.176428)
  1 by 2 by 3 MPI processor grid
  reading atoms ...
  74 atoms
  scanning bonds ...
  5 = max bonds/atom
  scanning angles ...
  18 = max angles/atom
  scanning dihedrals ...
  30 = max dihedrals/atom
  scanning impropers ...
  16 = max impropers/atom
  reading bonds ...
  85 bonds
  reading angles ...
  186 angles
  reading dihedrals ...
  345 dihedrals
  reading impropers ...
  120 impropers
Finding 1-2 1-3 1-4 neighbors ...
  special bond factors lj:    0        0        0       
  special bond factors coul:  0        0        0       
     4 = max # of 1-2 neighbors
     9 = max # of 1-3 neighbors
    25 = max # of 1-4 neighbors
    36 = max # of special neighbors
  special bonds CPU = 0.000 seconds
  read_data CPU = 0.009 seconds

include calc.pram

# Masses

mass		1    12.01115  # c
mass		2    12.01115  # c1
mass		3    12.01115  # c3h
mass		4     1.00797  # h
mass		5     1.00797  # hc
mass		6    15.99940  # o3e
mass		7    15.99940  # oc
mass		8    15.99940  # oh

# Potentials

pair_coeff	 1  1    0.05400    4.01000  # c,c
pair_coeff	 2  2    0.05400    4.01000  # c1,c1
pair_coeff	 3  3    0.05400    4.01000  # c3h,c3h
pair_coeff	 4  4    0.02000    2.99500  # h,h
pair_coeff	 5  5    0.02000    2.99500  # hc,hc
pair_coeff	 6  6    0.24000    3.53500  # o3e,o3e
pair_coeff	 7  7    0.24000    3.53500  # oc,oc
pair_coeff	 8  8    0.24000    3.53500  # oh,oh

# Bond Coeffs

bond_coeff	 1    1.53000  299.67000 -501.77000  679.81000  # c,c
bond_coeff	 2    1.53000  299.67000 -501.77000  679.81000  # c,c1
bond_coeff	 3    1.53000  299.67000 -501.77000  679.81000  # c,c3h
bond_coeff	 4    1.10100  345.00000 -691.89000  844.60000  # c,hc
bond_coeff	 5    1.53000  299.67000 -501.77000  679.81000  # c1,c1
bond_coeff	 6    1.53000  299.67000 -501.77000  679.81000  # c1,c3h
bond_coeff	 7    1.10100  345.00000 -691.89000  844.60000  # c1,hc
bond_coeff	 8    1.42000  400.39540 -835.19510 1313.01420  # c1,o3e
bond_coeff	 9    1.42000  400.39540 -835.19510 1313.01420  # c1,oc
bond_coeff	10    1.42000  400.39540 -835.19510 1313.01420  # c1,oh
bond_coeff	11    1.53000  299.67000 -501.77000  679.81000  # c3h,c3h
bond_coeff	12    1.10100  345.00000 -691.89000  844.60000  # c3h,hc
bond_coeff	13    1.42000  400.39540 -835.19510 1313.01420  # c3h,o3e
bond_coeff	14    0.96000  493.84800    0.00000    0.00000  # h,oh

# Angle Coeffs

angle_coeff	 1  112.67000   39.51600   -7.44300   -9.55830  # c,c,c1
angle_coeff	 2  110.77000   41.45300  -10.60400    5.12900  # c,c,hc
angle_coeff	 3  112.67000   39.51600   -7.44300   -9.55830  # c,c1,c
angle_coeff	 4  112.67000   39.51600   -7.44300   -9.55830  # c,c1,c1
angle_coeff	 5  110.77000   41.45300  -10.60400    5.12900  # c,c1,hc
angle_coeff	 6  111.27000   54.53810   -8.36420  -13.08380  # c,c1,o3e
angle_coeff	 7  111.27000   54.53810   -8.36420  -13.08380  # c,c1,oc
angle_coeff	 8  112.67000   39.51600   -7.44300   -9.55830  # c,c3h,c3h
angle_coeff	 9  110.77000   41.45300  -10.60400    5.12900  # c,c3h,hc
angle_coeff	10  111.27000   54.53810   -8.36420  -13.08380  # c,c3h,o3e
angle_coeff	11  112.67000   39.51600   -7.44300   -9.55830  # c1,c,c1
angle_coeff	12  112.67000   39.51600   -7.44300   -9.55830  # c1,c,c3h
angle_coeff	13  110.77000   41.45300  -10.60400    5.12900  # c1,c,hc
angle_coeff	14  112.67000   39.51600   -7.44300   -9.55830  # c1,c1,c1
angle_coeff	15  112.67000   39.51600   -7.44300   -9.55830  # c1,c1,c3h
angle_coeff	16  110.77000   41.45300  -10.60400    5.12900  # c1,c1,hc
angle_coeff	17  111.27000   54.53810   -8.36420  -13.08380  # c1,c1,o3e
angle_coeff	18  111.27000   54.53810   -8.36420  -13.08380  # c1,c1,oc
angle_coeff	19  111.27000   54.53810   -8.36420  -13.08380  # c1,c1,oh
angle_coeff	20  112.67000   39.51600   -7.44300   -9.55830  # c1,c3h,c3h
angle_coeff	21  110.77000   41.45300  -10.60400    5.12900  # c1,c3h,hc
angle_coeff	22  111.27000   54.53810   -8.36420  -13.08380  # c1,c3h,o3e
angle_coeff	23  104.50000   35.74540  -10.00670   -6.27290  # c1,o3e,c1
angle_coeff	24  104.50000   35.74540  -10.00670   -6.27290  # c1,oc,c1
angle_coeff	25  109.00000   58.50000    0.00000    0.00000  # c1,oh,h
angle_coeff	26  110.77000   41.45300  -10.60400    5.12900  # c3h,c,hc
angle_coeff	27  110.77000   41.45300  -10.60400    5.12900  # c3h,c1,hc
angle_coeff	28  110.77000   41.45300  -10.60400    5.12900  # c3h,c3h,hc
angle_coeff	29  111.27000   54.53810   -8.36420  -13.08380  # c3h,c3h,o3e
angle_coeff	30  104.50000   35.74540  -10.00670   -6.27290  # c3h,o3e,c3h
angle_coeff	31  107.66000   39.64100  -12.92100   -2.43180  # hc,c,hc
angle_coeff	32  108.72800   58.54460  -10.80880  -12.40060  # hc,c1,o3e
angle_coeff	33  108.72800   58.54460  -10.80880  -12.40060  # hc,c1,oc
angle_coeff	34  108.72800   58.54460  -10.80880  -12.40060  # hc,c1,oh
angle_coeff	35  108.72800   58.54460  -10.80880  -12.40060  # hc,c3h,o3e

# BondBond Coeffs

angle_coeff	 1 bb    0.00000    1.53000    1.53000  # c,c,c1
angle_coeff	 2 bb    3.38720    1.53000    1.10100  # c,c,hc
angle_coeff	 3 bb    0.00000    1.53000    1.53000  # c,c1,c
angle_coeff	 4 bb    0.00000    1.53000    1.53000  # c,c1,c1
angle_coeff	 5 bb    3.38720    1.53000    1.10100  # c,c1,hc
angle_coeff	 6 bb   11.43180    1.53000    1.42000  # c,c1,o3e
angle_coeff	 7 bb   11.43180    1.53000    1.42000  # c,c1,oc
angle_coeff	 8 bb    0.00000    1.53000    1.53000  # c,c3h,c3h
angle_coeff	 9 bb    3.38720    1.53000    1.10100  # c,c3h,hc
angle_coeff	10 bb   11.43180    1.53000    1.42000  # c,c3h,o3e
angle_coeff	11 bb    0.00000    1.53000    1.53000  # c1,c,c1
angle_coeff	12 bb    0.00000    1.53000    1.53000  # c1,c,c3h
angle_coeff	13 bb    3.38720    1.53000    1.10100  # c1,c,hc
angle_coeff	14 bb    0.00000    1.53000    1.53000  # c1,c1,c1
angle_coeff	15 bb    0.00000    1.53000    1.53000  # c1,c1,c3h
angle_coeff	16 bb    3.38720    1.53000    1.10100  # c1,c1,hc
angle_coeff	17 bb   11.43180    1.53000    1.42000  # c1,c1,o3e
angle_coeff	18 bb   11.43180    1.53000    1.42000  # c1,c1,oc
angle_coeff	19 bb   11.43180    1.53000    1.42000  # c1,c1,oh
angle_coeff	20 bb    0.00000    1.53000    1.53000  # c1,c3h,c3h
angle_coeff	21 bb    3.38720    1.53000    1.10100  # c1,c3h,hc
angle_coeff	22 bb   11.43180    1.53000    1.42000  # c1,c3h,o3e
angle_coeff	23 bb   -7.11310    1.42000    1.42000  # c1,o3e,c1
angle_coeff	24 bb   -7.11310    1.42000    1.42000  # c1,oc,c1
angle_coeff	25 bb    0.00000    1.42000    0.96000  # c1,oh,h
angle_coeff	26 bb    3.38720    1.53000    1.10100  # c3h,c,hc
angle_coeff	27 bb    3.38720    1.53000    1.10100  # c3h,c1,hc
angle_coeff	28 bb    3.38720    1.53000    1.10100  # c3h,c3h,hc
angle_coeff	29 bb   11.43180    1.53000    1.42000  # c3h,c3h,o3e
angle_coeff	30 bb   -7.11310    1.42000    1.42000  # c3h,o3e,c3h
angle_coeff	31 bb    5.33160    1.10100    1.10100  # hc,c,hc
angle_coeff	32 bb   23.19790    1.10100    1.42000  # hc,c1,o3e
angle_coeff	33 bb   23.19790    1.10100    1.42000  # hc,c1,oc
angle_coeff	34 bb   23.19790    1.10100    1.42000  # hc,c1,oh
angle_coeff	35 bb   23.19790    1.10100    1.42000  # hc,c3h,o3e

# BondAngle Coeffs

angle_coeff	 1 ba    8.01600    8.01600    1.53000    1.53000  # c,c,c1
angle_coeff	 2 ba   11.42100   20.75400    1.53000    1.10100  # c,c,hc
angle_coeff	 3 ba    8.01600    8.01600    1.53000    1.53000  # c,c1,c
angle_coeff	 4 ba    8.01600    8.01600    1.53000    1.53000  # c,c1,c1
angle_coeff	 5 ba   11.42100   20.75400    1.53000    1.10100  # c,c1,hc
angle_coeff	 6 ba    2.68680   20.40330    1.53000    1.42000  # c,c1,o3e
angle_coeff	 7 ba   20.40330    2.68680    1.53000    1.42000  # c,c1,oc
angle_coeff	 8 ba    8.01600    8.01600    1.53000    1.53000  # c,c3h,c3h
angle_coeff	 9 ba   11.42100   20.75400    1.53000    1.10100  # c,c3h,hc
angle_coeff	10 ba    2.68680   20.40330    1.53000    1.42000  # c,c3h,o3e
angle_coeff	11 ba    8.01600    8.01600    1.53000    1.53000  # c1,c,c1
angle_coeff	12 ba    8.01600    8.01600    1.53000    1.53000  # c1,c,c3h
angle_coeff	13 ba   20.75400   11.42100    1.53000    1.10100  # c1,c,hc
angle_coeff	14 ba    8.01600    8.01600    1.53000    1.53000  # c1,c1,c1
angle_coeff	15 ba    8.01600    8.01600    1.53000    1.53000  # c1,c1,c3h
angle_coeff	16 ba   20.75400   11.42100    1.53000    1.10100  # c1,c1,hc
angle_coeff	17 ba    2.68680   20.40330    1.53000    1.42000  # c1,c1,o3e
angle_coeff	18 ba    2.68680   20.40330    1.53000    1.42000  # c1,c1,oc
angle_coeff	19 ba   20.40330    2.68680    1.53000    1.42000  # c1,c1,oh
angle_coeff	20 ba    8.01600    8.01600    1.53000    1.53000  # c1,c3h,c3h
angle_coeff	21 ba   20.75400   11.42100    1.53000    1.10100  # c1,c3h,hc
angle_coeff	22 ba    2.68680   20.40330    1.53000    1.42000  # c1,c3h,o3e
angle_coeff	23 ba   -2.81120   -2.81120    1.42000    1.42000  # c1,o3e,c1
angle_coeff	24 ba   -2.81120   -2.81120    1.42000    1.42000  # c1,oc,c1
angle_coeff	25 ba    0.00000    0.00000    1.42000    0.96000  # c1,oh,h
angle_coeff	26 ba   11.42100   20.75400    1.53000    1.10100  # c3h,c,hc
angle_coeff	27 ba   11.42100   20.75400    1.53000    1.10100  # c3h,c1,hc
angle_coeff	28 ba   11.42100   20.75400    1.53000    1.10100  # c3h,c3h,hc
angle_coeff	29 ba   20.40330    2.68680    1.53000    1.42000  # c3h,c3h,o3e
angle_coeff	30 ba   -2.81120   -2.81120    1.42000    1.42000  # c3h,o3e,c3h
angle_coeff	31 ba   18.10300   18.10300    1.10100    1.10100  # hc,c,hc
angle_coeff	32 ba    4.61890   55.32700    1.10100    1.42000  # hc,c1,o3e
angle_coeff	33 ba    4.61890   55.32700    1.10100    1.42000  # hc,c1,oc
angle_coeff	34 ba   55.32700    4.61890    1.10100    1.42000  # hc,c1,oh
angle_coeff	35 ba    4.61890   55.32700    1.10100    1.42000  # hc,c3h,o3e

# Dihedral Coeffs

dihedral_coeff	 1    0.00000    0.00000    0.05140    0.00000   -0.14300    0.00000  # c,c,c1,c1
dihedral_coeff	 2    0.00000    0.00000    0.03160    0.00000   -0.16810    0.00000  # c,c,c1,hc
dihedral_coeff	 3    0.71370    0.00000    0.26600    0.00000   -0.25450    0.00000  # c,c,c1,oc
dihedral_coeff	 4    0.00000    0.00000    0.05140    0.00000   -0.14300    0.00000  # c,c1,c,c1
dihedral_coeff	 5    0.00000    0.00000    0.03160    0.00000   -0.16810    0.00000  # c,c1,c,hc
dihedral_coeff	 6    0.00000    0.00000    0.05140    0.00000   -0.14300    0.00000  # c,c1,c1,c
dihedral_coeff	 7    0.00000    0.00000    0.05140    0.00000   -0.14300    0.00000  # c,c1,c1,c1
dihedral_coeff	 8    0.00000    0.00000    0.05140    0.00000   -0.14300    0.00000  # c,c1,c1,c3h
dihedral_coeff	 9    0.00000    0.00000    0.03160    0.00000   -0.16810    0.00000  # c,c1,c1,hc
dihedral_coeff	10    0.71370    0.00000    0.26600    0.00000   -0.25450    0.00000  # c,c1,c1,o3e
dihedral_coeff	11    0.71370    0.00000    0.26600    0.00000   -0.25450    0.00000  # c,c1,c1,oc
dihedral_coeff	12    0.71370    0.00000    0.26600    0.00000   -0.25450    0.00000  # c,c1,c1,oh
dihedral_coeff	13   -0.52030    0.00000   -0.30280    0.00000   -0.34500    0.00000  # c,c1,o3e,c1
dihedral_coeff	14   -0.52030    0.00000   -0.30280    0.00000   -0.34500    0.00000  # c,c1,oc,c1
dihedral_coeff	15    0.00000    0.00000    0.05140    0.00000   -0.14300    0.00000  # c,c3h,c3h,c1
dihedral_coeff	16    0.00000    0.00000    0.03160    0.00000   -0.16810    0.00000  # c,c3h,c3h,hc
dihedral_coeff	17    0.71370    0.00000    0.26600    0.00000   -0.25450    0.00000  # c,c3h,c3h,o3e
dihedral_coeff	18   -0.52030    0.00000   -0.30280    0.00000   -0.34500    0.00000  # c,c3h,o3e,c3h
dihedral_coeff	19    0.00000    0.00000    0.05140    0.00000   -0.14300    0.00000  # c1,c,c,c1
dihedral_coeff	20    0.00000    0.00000    0.03160    0.00000   -0.16810    0.00000  # c1,c,c,hc
dihedral_coeff	21    0.00000    0.00000    0.05140    0.00000   -0.14300    0.00000  # c1,c,c1,c1
dihedral_coeff	22    0.00000    0.00000    0.03160    0.00000   -0.16810    0.00000  # c1,c,c1,hc
dihedral_coeff	23    0.71370    0.00000    0.26600    0.00000   -0.25450    0.00000  # c1,c,c1,o3e
dihedral_coeff	24    0.71370    0.00000    0.26600    0.00000   -0.25450    0.00000  # c1,c,c1,oc
dihedral_coeff	25    0.00000    0.00000    0.05140    0.00000   -0.14300    0.00000  # c1,c,c3h,c3h
dihedral_coeff	26    0.00000    0.00000    0.03160    0.00000   -0.16810    0.00000  # c1,c,c3h,hc
dihedral_coeff	27    0.71370    0.00000    0.26600    0.00000   -0.25450    0.00000  # c1,c,c3h,o3e
dihedral_coeff	28    0.00000    0.00000    0.05140    0.00000   -0.14300    0.00000  # c1,c1,c,c3h
dihedral_coeff	29    0.00000    0.00000    0.03160    0.00000   -0.16810    0.00000  # c1,c1,c,hc
dihedral_coeff	30    0.00000    0.00000    0.05140    0.00000   -0.14300    0.00000  # c1,c1,c1,c1
dihedral_coeff	31    0.00000    0.00000    0.05140    0.00000   -0.14300    0.00000  # c1,c1,c1,c3h
dihedral_coeff	32    0.00000    0.00000    0.03160    0.00000   -0.16810    0.00000  # c1,c1,c1,hc
dihedral_coeff	33    0.71370    0.00000    0.26600    0.00000   -0.25450    0.00000  # c1,c1,c1,o3e
dihedral_coeff	34    0.71370    0.00000    0.26600    0.00000   -0.25450    0.00000  # c1,c1,c1,oc
dihedral_coeff	35    0.71370    0.00000    0.26600    0.00000   -0.25450    0.00000  # c1,c1,c1,oh
dihedral_coeff	36    0.00000    0.00000    0.05140    0.00000   -0.14300    0.00000  # c1,c1,c3h,c3h
dihedral_coeff	37    0.00000    0.00000    0.03160    0.00000   -0.16810    0.00000  # c1,c1,c3h,hc
dihedral_coeff	38    0.71370    0.00000    0.26600    0.00000   -0.25450    0.00000  # c1,c1,c3h,o3e
dihedral_coeff	39   -0.52030    0.00000   -0.30280    0.00000   -0.34500    0.00000  # c1,c1,o3e,c1
dihedral_coeff	40   -0.52030    0.00000   -0.30280    0.00000   -0.34500    0.00000  # c1,c1,oc,c1
dihedral_coeff	41    0.00000    0.00000    0.00000    0.00000    0.13000  180.00000  # c1,c1,oh,h
dihedral_coeff	42    0.00000    0.00000    0.03160    0.00000   -0.16810    0.00000  # c1,c3h,c3h,hc
dihedral_coeff	43    0.71370    0.00000    0.26600    0.00000   -0.25450    0.00000  # c1,c3h,c3h,o3e
dihedral_coeff	44   -0.52030    0.00000   -0.30280    0.00000   -0.34500    0.00000  # c1,c3h,o3e,c3h
dihedral_coeff	45    0.53020    0.00000    0.00000    0.00000   -0.39660    0.00000  # c1,o3e,c1,hc
dihedral_coeff	46    0.53020    0.00000    0.00000    0.00000   -0.39660    0.00000  # c1,oc,c1,hc
dihedral_coeff	47    0.00000    0.00000    0.03160    0.00000   -0.16810    0.00000  # c3h,c,c1,hc
dihedral_coeff	48    0.00000    0.00000    0.03160    0.00000   -0.16810    0.00000  # c3h,c1,c1,hc
dihedral_coeff	49    0.00000    0.00000    0.03160    0.00000   -0.16810    0.00000  # c3h,c3h,c,hc
dihedral_coeff	50    0.00000    0.00000    0.03160    0.00000   -0.16810    0.00000  # c3h,c3h,c1,hc
dihedral_coeff	51    0.53020    0.00000    0.00000    0.00000   -0.39660    0.00000  # c3h,o3e,c3h,hc
dihedral_coeff	52    0.00000    0.00000    0.00000    0.00000    0.13000  180.00000  # h,oh,c1,hc
dihedral_coeff	53   -0.14320    0.00000    0.06170    0.00000   -0.10830    0.00000  # hc,c,c,hc
dihedral_coeff	54   -0.14320    0.00000    0.06170    0.00000   -0.10830    0.00000  # hc,c,c1,hc
dihedral_coeff	55   -0.14350    0.00000    0.25300    0.00000   -0.09050    0.00000  # hc,c,c1,o3e
dihedral_coeff	56   -0.14350    0.00000    0.25300    0.00000   -0.09050    0.00000  # hc,c,c1,oc
dihedral_coeff	57   -0.14320    0.00000    0.06170    0.00000   -0.10830    0.00000  # hc,c,c3h,hc
dihedral_coeff	58   -0.14350    0.00000    0.25300    0.00000   -0.09050    0.00000  # hc,c,c3h,o3e
dihedral_coeff	59   -0.14320    0.00000    0.06170    0.00000   -0.10830    0.00000  # hc,c1,c1,hc
dihedral_coeff	60   -0.14350    0.00000    0.25300    0.00000   -0.09050    0.00000  # hc,c1,c1,o3e
dihedral_coeff	61   -0.14350    0.00000    0.25300    0.00000   -0.09050    0.00000  # hc,c1,c1,oc
dihedral_coeff	62   -0.14350    0.00000    0.25300    0.00000   -0.09050    0.00000  # hc,c1,c1,oh
dihedral_coeff	63   -0.14320    0.00000    0.06170    0.00000   -0.10830    0.00000  # hc,c1,c3h,hc
dihedral_coeff	64   -0.14350    0.00000    0.25300    0.00000   -0.09050    0.00000  # hc,c1,c3h,o3e
dihedral_coeff	65   -0.14320    0.00000    0.06170    0.00000   -0.10830    0.00000  # hc,c3h,c3h,hc
dihedral_coeff	66   -0.14350    0.00000    0.25300    0.00000   -0.09050    0.00000  # hc,c3h,c3h,o3e
dihedral_coeff	67   -0.18200    0.00000   -0.10840    0.00000   -0.70470    0.00000  # oc,c1,c1,oc
dihedral_coeff	68   -0.18200    0.00000   -0.10840    0.00000   -0.70470    0.00000  # oc,c1,c1,oh

# MiddleBondTorsion Coeffs

dihedral_coeff	 1 mbt  -17.78700   -7.18770    0.00000    1.53000  # c,c,c1,c1
dihedral_coeff	 2 mbt  -14.87900   -3.65810   -0.31380    1.53000  # c,c,c1,hc
dihedral_coeff	 3 mbt  -21.88420   -7.67640   -0.68680    1.53000  # c,c,c1,oc
dihedral_coeff	 4 mbt  -17.78700   -7.18770    0.00000    1.53000  # c,c1,c,c1
dihedral_coeff	 5 mbt  -14.87900   -3.65810   -0.31380    1.53000  # c,c1,c,hc
dihedral_coeff	 6 mbt  -17.78700   -7.18770    0.00000    1.53000  # c,c1,c1,c
dihedral_coeff	 7 mbt  -17.78700   -7.18770    0.00000    1.53000  # c,c1,c1,c1
dihedral_coeff	 8 mbt  -17.78700   -7.18770    0.00000    1.53000  # c,c1,c1,c3h
dihedral_coeff	 9 mbt  -14.87900   -3.65810   -0.31380    1.53000  # c,c1,c1,hc
dihedral_coeff	10 mbt  -21.88420   -7.67640   -0.68680    1.53000  # c,c1,c1,o3e
dihedral_coeff	11 mbt  -21.88420   -7.67640   -0.68680    1.53000  # c,c1,c1,oc
dihedral_coeff	12 mbt  -21.88420   -7.67640   -0.68680    1.53000  # c,c1,c1,oh
dihedral_coeff	13 mbt   -5.92880   -2.70070   -0.31750    1.42000  # c,c1,o3e,c1
dihedral_coeff	14 mbt   -5.92880   -2.70070   -0.31750    1.42000  # c,c1,oc,c1
dihedral_coeff	15 mbt  -17.78700   -7.18770    0.00000    1.53000  # c,c3h,c3h,c1
dihedral_coeff	16 mbt  -14.87900   -3.65810   -0.31380    1.53000  # c,c3h,c3h,hc
dihedral_coeff	17 mbt  -21.88420   -7.67640   -0.68680    1.53000  # c,c3h,c3h,o3e
dihedral_coeff	18 mbt   -5.92880   -2.70070   -0.31750    1.42000  # c,c3h,o3e,c3h
dihedral_coeff	19 mbt  -17.78700   -7.18770    0.00000    1.53000  # c1,c,c,c1
dihedral_coeff	20 mbt  -14.87900   -3.65810   -0.31380    1.53000  # c1,c,c,hc
dihedral_coeff	21 mbt  -17.78700   -7.18770    0.00000    1.53000  # c1,c,c1,c1
dihedral_coeff	22 mbt  -14.87900   -3.65810   -0.31380    1.53000  # c1,c,c1,hc
dihedral_coeff	23 mbt  -21.88420   -7.67640   -0.68680    1.53000  # c1,c,c1,o3e
dihedral_coeff	24 mbt  -21.88420   -7.67640   -0.68680    1.53000  # c1,c,c1,oc
dihedral_coeff	25 mbt  -17.78700   -7.18770    0.00000    1.53000  # c1,c,c3h,c3h
dihedral_coeff	26 mbt  -14.87900   -3.65810   -0.31380    1.53000  # c1,c,c3h,hc
dihedral_coeff	27 mbt  -21.88420   -7.67640   -0.68680    1.53000  # c1,c,c3h,o3e
dihedral_coeff	28 mbt  -17.78700   -7.18770    0.00000    1.53000  # c1,c1,c,c3h
dihedral_coeff	29 mbt  -14.87900   -3.65810   -0.31380    1.53000  # c1,c1,c,hc
dihedral_coeff	30 mbt  -17.78700   -7.18770    0.00000    1.53000  # c1,c1,c1,c1
dihedral_coeff	31 mbt  -17.78700   -7.18770    0.00000    1.53000  # c1,c1,c1,c3h
dihedral_coeff	32 mbt  -14.87900   -3.65810   -0.31380    1.53000  # c1,c1,c1,hc
dihedral_coeff	33 mbt  -21.88420   -7.67640   -0.68680    1.53000  # c1,c1,c1,o3e
dihedral_coeff	34 mbt  -21.88420   -7.67640   -0.68680    1.53000  # c1,c1,c1,oc
dihedral_coeff	35 mbt  -21.88420   -7.67640   -0.68680    1.53000  # c1,c1,c1,oh
dihedral_coeff	36 mbt  -17.78700   -7.18770    0.00000    1.53000  # c1,c1,c3h,c3h
dihedral_coeff	37 mbt  -14.87900   -3.65810   -0.31380    1.53000  # c1,c1,c3h,hc
dihedral_coeff	38 mbt  -21.88420   -7.67640   -0.68680    1.53000  # c1,c1,c3h,o3e
dihedral_coeff	39 mbt   -5.92880   -2.70070   -0.31750    1.42000  # c1,c1,o3e,c1
dihedral_coeff	40 mbt   -5.92880   -2.70070   -0.31750    1.42000  # c1,c1,oc,c1
dihedral_coeff	41 mbt    0.00000    0.00000    0.00000    1.42000  # c1,c1,oh,h
dihedral_coeff	42 mbt  -14.87900   -3.65810   -0.31380    1.53000  # c1,c3h,c3h,hc
dihedral_coeff	43 mbt  -21.88420   -7.67640   -0.68680    1.53000  # c1,c3h,c3h,o3e
dihedral_coeff	44 mbt   -5.92880   -2.70070   -0.31750    1.42000  # c1,c3h,o3e,c3h
dihedral_coeff	45 mbt   -6.80070   -4.65460   -1.41010    1.42000  # c1,o3e,c1,hc
dihedral_coeff	46 mbt   -6.80070   -4.65460   -1.41010    1.42000  # c1,oc,c1,hc
dihedral_coeff	47 mbt  -14.87900   -3.65810   -0.31380    1.53000  # c3h,c,c1,hc
dihedral_coeff	48 mbt  -14.87900   -3.65810   -0.31380    1.53000  # c3h,c1,c1,hc
dihedral_coeff	49 mbt  -14.87900   -3.65810   -0.31380    1.53000  # c3h,c3h,c,hc
dihedral_coeff	50 mbt  -14.87900   -3.65810   -0.31380    1.53000  # c3h,c3h,c1,hc
dihedral_coeff	51 mbt   -6.80070   -4.65460   -1.41010    1.42000  # c3h,o3e,c3h,hc
dihedral_coeff	52 mbt    0.00000    0.00000    0.00000    1.42000  # h,oh,c1,hc
dihedral_coeff	53 mbt  -14.26100   -0.53220   -0.48640    1.53000  # hc,c,c,hc
dihedral_coeff	54 mbt  -14.26100   -0.53220   -0.48640    1.53000  # hc,c,c1,hc
dihedral_coeff	55 mbt  -16.79750   -1.22960   -0.27500    1.53000  # hc,c,c1,o3e
dihedral_coeff	56 mbt  -16.79750   -1.22960   -0.27500    1.53000  # hc,c,c1,oc
dihedral_coeff	57 mbt  -14.26100   -0.53220   -0.48640    1.53000  # hc,c,c3h,hc
dihedral_coeff	58 mbt  -16.79750   -1.22960   -0.27500    1.53000  # hc,c,c3h,o3e
dihedral_coeff	59 mbt  -14.26100   -0.53220   -0.48640    1.53000  # hc,c1,c1,hc
dihedral_coeff	60 mbt  -16.79750   -1.22960   -0.27500    1.53000  # hc,c1,c1,o3e
dihedral_coeff	61 mbt  -16.79750   -1.22960   -0.27500    1.53000  # hc,c1,c1,oc
dihedral_coeff	62 mbt  -16.79750   -1.22960   -0.27500    1.53000  # hc,c1,c1,oh
dihedral_coeff	63 mbt  -14.26100   -0.53220   -0.48640    1.53000  # hc,c1,c3h,hc
dihedral_coeff	64 mbt  -16.79750   -1.22960   -0.27500    1.53000  # hc,c1,c3h,o3e
dihedral_coeff	65 mbt  -14.26100   -0.53220   -0.48640    1.53000  # hc,c3h,c3h,hc
dihedral_coeff	66 mbt  -16.79750   -1.22960   -0.27500    1.53000  # hc,c3h,c3h,o3e
dihedral_coeff	67 mbt  -17.25850   -3.61570   -0.83640    1.53000  # oc,c1,c1,oc
dihedral_coeff	68 mbt  -17.25850   -3.61570   -0.83640    1.53000  # oc,c1,c1,oh

# EndBondTorsion Coeffs

dihedral_coeff	 1 ebt   -0.07320    0.00000    0.00000   -0.07320    0.00000    0.00000    1.53000    1.53000  # c,c,c1,c1
dihedral_coeff	 2 ebt    0.08140    0.05910    0.22190    0.24860    0.24220   -0.09250    1.53000    1.10100  # c,c,c1,hc
dihedral_coeff	 3 ebt    1.15380    0.84090   -0.91380   -0.31900    0.44110   -0.71740    1.53000    1.42000  # c,c,c1,oc
dihedral_coeff	 4 ebt   -0.07320    0.00000    0.00000   -0.07320    0.00000    0.00000    1.53000    1.53000  # c,c1,c,c1
dihedral_coeff	 5 ebt    0.08140    0.05910    0.22190    0.24860    0.24220   -0.09250    1.53000    1.10100  # c,c1,c,hc
dihedral_coeff	 6 ebt   -0.07320    0.00000    0.00000   -0.07320    0.00000    0.00000    1.53000    1.53000  # c,c1,c1,c
dihedral_coeff	 7 ebt   -0.07320    0.00000    0.00000   -0.07320    0.00000    0.00000    1.53000    1.53000  # c,c1,c1,c1
dihedral_coeff	 8 ebt   -0.07320    0.00000    0.00000   -0.07320    0.00000    0.00000    1.53000    1.53000  # c,c1,c1,c3h
dihedral_coeff	 9 ebt    0.08140    0.05910    0.22190    0.24860    0.24220   -0.09250    1.53000    1.10100  # c,c1,c1,hc
dihedral_coeff	10 ebt   -0.31900    0.44110   -0.71740    1.15380    0.84090   -0.91380    1.53000    1.42000  # c,c1,c1,o3e
dihedral_coeff	11 ebt    1.15380    0.84090   -0.91380   -0.31900    0.44110   -0.71740    1.53000    1.42000  # c,c1,c1,oc
dihedral_coeff	12 ebt    1.15380    0.84090   -0.91380   -0.31900    0.44110   -0.71740    1.53000    1.42000  # c,c1,c1,oh
dihedral_coeff	13 ebt    0.47410    1.26350    0.55760   -0.24560    1.05170   -0.77950    1.53000    1.42000  # c,c1,o3e,c1
dihedral_coeff	14 ebt    0.47410    1.26350    0.55760   -0.24560    1.05170   -0.77950    1.53000    1.42000  # c,c1,oc,c1
dihedral_coeff	15 ebt   -0.07320    0.00000    0.00000   -0.07320    0.00000    0.00000    1.53000    1.53000  # c,c3h,c3h,c1
dihedral_coeff	16 ebt    0.08140    0.05910    0.22190    0.24860    0.24220   -0.09250    1.53000    1.10100  # c,c3h,c3h,hc
dihedral_coeff	17 ebt   -0.31900    0.44110   -0.71740    1.15380    0.84090   -0.91380    1.53000    1.42000  # c,c3h,c3h,o3e
dihedral_coeff	18 ebt   -0.24560    1.05170   -0.77950    0.47410    1.26350    0.55760    1.53000    1.42000  # c,c3h,o3e,c3h
dihedral_coeff	19 ebt   -0.07320    0.00000    0.00000   -0.07320    0.00000    0.00000    1.53000    1.53000  # c1,c,c,c1
dihedral_coeff	20 ebt    0.24860    0.24220   -0.09250    0.08140    0.05910    0.22190    1.53000    1.10100  # c1,c,c,hc
dihedral_coeff	21 ebt   -0.07320    0.00000    0.00000   -0.07320    0.00000    0.00000    1.53000    1.53000  # c1,c,c1,c1
dihedral_coeff	22 ebt    0.24860    0.24220   -0.09250    0.08140    0.05910    0.22190    1.53000    1.10100  # c1,c,c1,hc
dihedral_coeff	23 ebt   -0.31900    0.44110   -0.71740    1.15380    0.84090   -0.91380    1.53000    1.42000  # c1,c,c1,o3e
dihedral_coeff	24 ebt   -0.31900    0.44110   -0.71740    1.15380    0.84090   -0.91380    1.53000    1.42000  # c1,c,c1,oc
dihedral_coeff	25 ebt   -0.07320    0.00000    0.00000   -0.07320    0.00000    0.00000    1.53000    1.53000  # c1,c,c3h,c3h
dihedral_coeff	26 ebt    0.24860    0.24220   -0.09250    0.08140    0.05910    0.22190    1.53000    1.10100  # c1,c,c3h,hc
dihedral_coeff	27 ebt   -0.31900    0.44110   -0.71740    1.15380    0.84090   -0.91380    1.53000    1.42000  # c1,c,c3h,o3e
dihedral_coeff	28 ebt   -0.07320    0.00000    0.00000   -0.07320    0.00000    0.00000    1.53000    1.53000  # c1,c1,c,c3h
dihedral_coeff	29 ebt    0.24860    0.24220   -0.09250    0.08140    0.05910    0.22190    1.53000    1.10100  # c1,c1,c,hc
dihedral_coeff	30 ebt   -0.07320    0.00000    0.00000   -0.07320    0.00000    0.00000    1.53000    1.53000  # c1,c1,c1,c1
dihedral_coeff	31 ebt   -0.07320    0.00000    0.00000   -0.07320    0.00000    0.00000    1.53000    1.53000  # c1,c1,c1,c3h
dihedral_coeff	32 ebt    0.24860    0.24220   -0.09250    0.08140    0.05910    0.22190    1.53000    1.10100  # c1,c1,c1,hc
dihedral_coeff	33 ebt   -0.31900    0.44110   -0.71740    1.15380    0.84090   -0.91380    1.53000    1.42000  # c1,c1,c1,o3e
dihedral_coeff	34 ebt   -0.31900    0.44110   -0.71740    1.15380    0.84090   -0.91380    1.53000    1.42000  # c1,c1,c1,oc
dihedral_coeff	35 ebt    1.15380    0.84090   -0.91380   -0.31900    0.44110   -0.71740    1.53000    1.42000  # c1,c1,c1,oh
dihedral_coeff	36 ebt   -0.07320    0.00000    0.00000   -0.07320    0.00000    0.00000    1.53000    1.53000  # c1,c1,c3h,c3h
dihedral_coeff	37 ebt    0.24860    0.24220   -0.09250    0.08140    0.05910    0.22190    1.53000    1.10100  # c1,c1,c3h,hc
dihedral_coeff	38 ebt   -0.31900    0.44110   -0.71740    1.15380    0.84090   -0.91380    1.53000    1.42000  # c1,c1,c3h,o3e
dihedral_coeff	39 ebt   -0.24560    1.05170   -0.77950    0.47410    1.26350    0.55760    1.53000    1.42000  # c1,c1,o3e,c1
dihedral_coeff	40 ebt   -0.24560    1.05170   -0.77950    0.47410    1.26350    0.55760    1.53000    1.42000  # c1,c1,oc,c1
dihedral_coeff	41 ebt    0.00000    0.00000    0.00000    0.00000    0.00000    0.00000    1.53000    0.96000  # c1,c1,oh,h
dihedral_coeff	42 ebt    0.24860    0.24220   -0.09250    0.08140    0.05910    0.22190    1.53000    1.10100  # c1,c3h,c3h,hc
dihedral_coeff	43 ebt   -0.31900    0.44110   -0.71740    1.15380    0.84090   -0.91380    1.53000    1.42000  # c1,c3h,c3h,o3e
dihedral_coeff	44 ebt   -0.24560    1.05170   -0.77950    0.47410    1.26350    0.55760    1.53000    1.42000  # c1,c3h,o3e,c3h
dihedral_coeff	45 ebt   -0.16200    0.15640   -1.14080   -0.60540    1.33390    0.96480    1.42000    1.10100  # c1,o3e,c1,hc
dihedral_coeff	46 ebt   -0.16200    0.15640   -1.14080   -0.60540    1.33390    0.96480    1.42000    1.10100  # c1,oc,c1,hc
dihedral_coeff	47 ebt    0.08140    0.05910    0.22190    0.24860    0.24220   -0.09250    1.53000    1.10100  # c3h,c,c1,hc
dihedral_coeff	48 ebt    0.08140    0.05910    0.22190    0.24860    0.24220   -0.09250    1.53000    1.10100  # c3h,c1,c1,hc
dihedral_coeff	49 ebt    0.08140    0.05910    0.22190    0.24860    0.24220   -0.09250    1.53000    1.10100  # c3h,c3h,c,hc
dihedral_coeff	50 ebt    0.08140    0.05910    0.22190    0.24860    0.24220   -0.09250    1.53000    1.10100  # c3h,c3h,c1,hc
dihedral_coeff	51 ebt   -0.60540    1.33390    0.96480   -0.16200    0.15640   -1.14080    1.42000    1.10100  # c3h,o3e,c3h,hc
dihedral_coeff	52 ebt    0.00000    0.00000    0.00000    0.00000    0.00000    0.00000    0.96000    1.10100  # h,oh,c1,hc
dihedral_coeff	53 ebt    0.21300    0.31200    0.07770    0.21300    0.31200    0.07770    1.10100    1.10100  # hc,c,c,hc
dihedral_coeff	54 ebt    0.21300    0.31200    0.07770    0.21300    0.31200    0.07770    1.10100    1.10100  # hc,c,c1,hc
dihedral_coeff	55 ebt    0.96810    0.95510    0.04360    0.59030    0.66690    0.85840    1.10100    1.42000  # hc,c,c1,o3e
dihedral_coeff	56 ebt    0.96810    0.95510    0.04360    0.59030    0.66690    0.85840    1.10100    1.42000  # hc,c,c1,oc
dihedral_coeff	57 ebt    0.21300    0.31200    0.07770    0.21300    0.31200    0.07770    1.10100    1.10100  # hc,c,c3h,hc
dihedral_coeff	58 ebt    0.96810    0.95510    0.04360    0.59030    0.66690    0.85840    1.10100    1.42000  # hc,c,c3h,o3e
dihedral_coeff	59 ebt    0.21300    0.31200    0.07770    0.21300    0.31200    0.07770    1.10100    1.10100  # hc,c1,c1,hc
dihedral_coeff	60 ebt    0.96810    0.95510    0.04360    0.59030    0.66690    0.85840    1.10100    1.42000  # hc,c1,c1,o3e
dihedral_coeff	61 ebt    0.96810    0.95510    0.04360    0.59030    0.66690    0.85840    1.10100    1.42000  # hc,c1,c1,oc
dihedral_coeff	62 ebt    0.59030    0.66690    0.85840    0.96810    0.95510    0.04360    1.10100    1.42000  # hc,c1,c1,oh
dihedral_coeff	63 ebt    0.21300    0.31200    0.07770    0.21300    0.31200    0.07770    1.10100    1.10100  # hc,c1,c3h,hc
dihedral_coeff	64 ebt    0.96810    0.95510    0.04360    0.59030    0.66690    0.85840    1.10100    1.42000  # hc,c1,c3h,o3e
dihedral_coeff	65 ebt    0.21300    0.31200    0.07770    0.21300    0.31200    0.07770    1.10100    1.10100  # hc,c3h,c3h,hc
dihedral_coeff	66 ebt    0.96810    0.95510    0.04360    0.59030    0.66690    0.85840    1.10100    1.42000  # hc,c3h,c3h,o3e
dihedral_coeff	67 ebt    1.01650    0.75530   -0.46090    1.01650    0.75530   -0.46090    1.42000    1.42000  # oc,c1,c1,oc
dihedral_coeff	68 ebt    1.01650    0.75530   -0.46090    1.01650    0.75530   -0.46090    1.42000    1.42000  # oc,c1,c1,oh

# AngleTorsion Coeffs

dihedral_coeff	 1 at    0.38860   -0.31390    0.13890    0.38860   -0.31390    0.13890  112.67000  112.67000  # c,c,c1,c1
dihedral_coeff	 2 at    0.31130    0.45160   -0.19880   -0.24540    0.00000   -0.11360  112.67000  110.77000  # c,c,c1,hc
dihedral_coeff	 3 at    0.96720   -0.75660   -1.23310    0.56230   -0.30410   -0.40150  112.67000  111.27000  # c,c,c1,oc
dihedral_coeff	 4 at    0.38860   -0.31390    0.13890    0.38860   -0.31390    0.13890  112.67000  112.67000  # c,c1,c,c1
dihedral_coeff	 5 at    0.31130    0.45160   -0.19880   -0.24540    0.00000   -0.11360  112.67000  110.77000  # c,c1,c,hc
dihedral_coeff	 6 at    0.38860   -0.31390    0.13890    0.38860   -0.31390    0.13890  112.67000  112.67000  # c,c1,c1,c
dihedral_coeff	 7 at    0.38860   -0.31390    0.13890    0.38860   -0.31390    0.13890  112.67000  112.67000  # c,c1,c1,c1
dihedral_coeff	 8 at    0.38860   -0.31390    0.13890    0.38860   -0.31390    0.13890  112.67000  112.67000  # c,c1,c1,c3h
dihedral_coeff	 9 at    0.31130    0.45160   -0.19880   -0.24540    0.00000   -0.11360  112.67000  110.77000  # c,c1,c1,hc
dihedral_coeff	10 at    0.56230   -0.30410   -0.40150    0.96720   -0.75660   -1.23310  112.67000  111.27000  # c,c1,c1,o3e
dihedral_coeff	11 at    0.96720   -0.75660   -1.23310    0.56230   -0.30410   -0.40150  112.67000  111.27000  # c,c1,c1,oc
dihedral_coeff	12 at    0.96720   -0.75660   -1.23310    0.56230   -0.30410   -0.40150  112.67000  111.27000  # c,c1,c1,oh
dihedral_coeff	13 at    0.56760    0.94500    0.07030   -2.74660    1.48770   -0.89550  111.27000  104.50000  # c,c1,o3e,c1
dihedral_coeff	14 at    0.56760    0.94500    0.07030   -2.74660    1.48770   -0.89550  111.27000  104.50000  # c,c1,oc,c1
dihedral_coeff	15 at    0.38860   -0.31390    0.13890    0.38860   -0.31390    0.13890  112.67000  112.67000  # c,c3h,c3h,c1
dihedral_coeff	16 at    0.31130    0.45160   -0.19880   -0.24540    0.00000   -0.11360  112.67000  110.77000  # c,c3h,c3h,hc
dihedral_coeff	17 at    0.56230   -0.30410   -0.40150    0.96720   -0.75660   -1.23310  112.67000  111.27000  # c,c3h,c3h,o3e
dihedral_coeff	18 at   -2.74660    1.48770   -0.89550    0.56760    0.94500    0.07030  111.27000  104.50000  # c,c3h,o3e,c3h
dihedral_coeff	19 at    0.38860   -0.31390    0.13890    0.38860   -0.31390    0.13890  112.67000  112.67000  # c1,c,c,c1
dihedral_coeff	20 at   -0.24540    0.00000   -0.11360    0.31130    0.45160   -0.19880  112.67000  110.77000  # c1,c,c,hc
dihedral_coeff	21 at    0.38860   -0.31390    0.13890    0.38860   -0.31390    0.13890  112.67000  112.67000  # c1,c,c1,c1
dihedral_coeff	22 at   -0.24540    0.00000   -0.11360    0.31130    0.45160   -0.19880  112.67000  110.77000  # c1,c,c1,hc
dihedral_coeff	23 at    0.56230   -0.30410   -0.40150    0.96720   -0.75660   -1.23310  112.67000  111.27000  # c1,c,c1,o3e
dihedral_coeff	24 at    0.56230   -0.30410   -0.40150    0.96720   -0.75660   -1.23310  112.67000  111.27000  # c1,c,c1,oc
dihedral_coeff	25 at    0.38860   -0.31390    0.13890    0.38860   -0.31390    0.13890  112.67000  112.67000  # c1,c,c3h,c3h
dihedral_coeff	26 at   -0.24540    0.00000   -0.11360    0.31130    0.45160   -0.19880  112.67000  110.77000  # c1,c,c3h,hc
dihedral_coeff	27 at    0.56230   -0.30410   -0.40150    0.96720   -0.75660   -1.23310  112.67000  111.27000  # c1,c,c3h,o3e
dihedral_coeff	28 at    0.38860   -0.31390    0.13890    0.38860   -0.31390    0.13890  112.67000  112.67000  # c1,c1,c,c3h
dihedral_coeff	29 at   -0.24540    0.00000   -0.11360    0.31130    0.45160   -0.19880  112.67000  110.77000  # c1,c1,c,hc
dihedral_coeff	30 at    0.38860   -0.31390    0.13890    0.38860   -0.31390    0.13890  112.67000  112.67000  # c1,c1,c1,c1
dihedral_coeff	31 at    0.38860   -0.31390    0.13890    0.38860   -0.31390    0.13890  112.67000  112.67000  # c1,c1,c1,c3h
dihedral_coeff	32 at   -0.24540    0.00000   -0.11360    0.31130    0.45160   -0.19880  112.67000  110.77000  # c1,c1,c1,hc
dihedral_coeff	33 at    0.56230   -0.30410   -0.40150    0.96720   -0.75660   -1.23310  112.67000  111.27000  # c1,c1,c1,o3e
dihedral_coeff	34 at    0.56230   -0.30410   -0.40150    0.96720   -0.75660   -1.23310  112.67000  111.27000  # c1,c1,c1,oc
dihedral_coeff	35 at    0.96720   -0.75660   -1.23310    0.56230   -0.30410   -0.40150  112.67000  111.27000  # c1,c1,c1,oh
dihedral_coeff	36 at    0.38860   -0.31390    0.13890    0.38860   -0.31390    0.13890  112.67000  112.67000  # c1,c1,c3h,c3h
dihedral_coeff	37 at   -0.24540    0.00000   -0.11360    0.31130    0.45160   -0.19880  112.67000  110.77000  # c1,c1,c3h,hc
dihedral_coeff	38 at    0.56230   -0.30410   -0.40150    0.96720   -0.75660   -1.23310  112.67000  111.27000  # c1,c1,c3h,o3e
dihedral_coeff	39 at   -2.74660    1.48770   -0.89550    0.56760    0.94500    0.07030  111.27000  104.50000  # c1,c1,o3e,c1
dihedral_coeff	40 at   -2.74660    1.48770   -0.89550    0.56760    0.94500    0.07030  111.27000  104.50000  # c1,c1,oc,c1
dihedral_coeff	41 at    0.00000    0.00000    0.00000    0.00000    0.00000    0.00000  111.27000  109.00000  # c1,c1,oh,h
dihedral_coeff	42 at   -0.24540    0.00000   -0.11360    0.31130    0.45160   -0.19880  112.67000  110.77000  # c1,c3h,c3h,hc
dihedral_coeff	43 at    0.56230   -0.30410   -0.40150    0.96720   -0.75660   -1.23310  112.67000  111.27000  # c1,c3h,c3h,o3e
dihedral_coeff	44 at   -2.74660    1.48770   -0.89550    0.56760    0.94500    0.07030  111.27000  104.50000  # c1,c3h,o3e,c3h
dihedral_coeff	45 at   -0.77770    0.43400   -0.66530   -1.82340    1.63930    0.51440  104.50000  108.72800  # c1,o3e,c1,hc
dihedral_coeff	46 at   -0.77770    0.43400   -0.66530   -1.82340    1.63930    0.51440  104.50000  108.72800  # c1,oc,c1,hc
dihedral_coeff	47 at    0.31130    0.45160   -0.19880   -0.24540    0.00000   -0.11360  112.67000  110.77000  # c3h,c,c1,hc
dihedral_coeff	48 at    0.31130    0.45160   -0.19880   -0.24540    0.00000   -0.11360  112.67000  110.77000  # c3h,c1,c1,hc
dihedral_coeff	49 at    0.31130    0.45160   -0.19880   -0.24540    0.00000   -0.11360  112.67000  110.77000  # c3h,c3h,c,hc
dihedral_coeff	50 at    0.31130    0.45160   -0.19880   -0.24540    0.00000   -0.11360  112.67000  110.77000  # c3h,c3h,c1,hc
dihedral_coeff	51 at   -1.82340    1.63930    0.51440   -0.77770    0.43400   -0.66530  104.50000  108.72800  # c3h,o3e,c3h,hc
dihedral_coeff	52 at    0.00000    0.00000    0.00000    0.00000    0.00000    0.00000  109.00000  108.72800  # h,oh,c1,hc
dihedral_coeff	53 at   -0.80850    0.55690   -0.24660   -0.80850    0.55690   -0.24660  110.77000  110.77000  # hc,c,c,hc
dihedral_coeff	54 at   -0.80850    0.55690   -0.24660   -0.80850    0.55690   -0.24660  110.77000  110.77000  # hc,c,c1,hc
dihedral_coeff	55 at    2.36680    2.49200   -1.01220   -0.18920    0.49180    0.72730  110.77000  111.27000  # hc,c,c1,o3e
dihedral_coeff	56 at    2.36680    2.49200   -1.01220   -0.18920    0.49180    0.72730  110.77000  111.27000  # hc,c,c1,oc
dihedral_coeff	57 at   -0.80850    0.55690   -0.24660   -0.80850    0.55690   -0.24660  110.77000  110.77000  # hc,c,c3h,hc
dihedral_coeff	58 at    2.36680    2.49200   -1.01220   -0.18920    0.49180    0.72730  110.77000  111.27000  # hc,c,c3h,o3e
dihedral_coeff	59 at   -0.80850    0.55690   -0.24660   -0.80850    0.55690   -0.24660  110.77000  110.77000  # hc,c1,c1,hc
dihedral_coeff	60 at    2.36680    2.49200   -1.01220   -0.18920    0.49180    0.72730  110.77000  111.27000  # hc,c1,c1,o3e
dihedral_coeff	61 at    2.36680    2.49200   -1.01220   -0.18920    0.49180    0.72730  110.77000  111.27000  # hc,c1,c1,oc
dihedral_coeff	62 at   -0.18920    0.49180    0.72730    2.36680    2.49200   -1.01220  110.77000  111.27000  # hc,c1,c1,oh
dihedral_coeff	63 at   -0.80850    0.55690   -0.24660   -0.80850    0.55690   -0.24660  110.77000  110.77000  # hc,c1,c3h,hc
dihedral_coeff	64 at    2.36680    2.49200   -1.01220   -0.18920    0.49180    0.72730  110.77000  111.27000  # hc,c1,c3h,o3e
dihedral_coeff	65 at   -0.80850    0.55690   -0.24660   -0.80850    0.55690   -0.24660  110.77000  110.77000  # hc,c3h,c3h,hc
dihedral_coeff	66 at    2.36680    2.49200   -1.01220   -0.18920    0.49180    0.72730  110.77000  111.27000  # hc,c3h,c3h,o3e
dihedral_coeff	67 at    0.55110    0.97370   -0.66730    0.55110    0.97370   -0.66730  111.27000  111.27000  # oc,c1,c1,oc
dihedral_coeff	68 at    0.55110    0.97370   -0.66730    0.55110    0.97370   -0.66730  111.27000  111.27000  # oc,c1,c1,oh

# AngleAngleTorsion Coeffs

dihedral_coeff	 1 aat  -22.04500  112.67000  112.67000  # c,c,c1,c1
dihedral_coeff	 2 aat  -16.16400  112.67000  110.77000  # c,c,c1,hc
dihedral_coeff	 3 aat  -29.04200  112.67000  111.27000  # c,c,c1,oc
dihedral_coeff	 4 aat  -22.04500  112.67000  112.67000  # c,c1,c,c1
dihedral_coeff	 5 aat  -16.16400  112.67000  110.77000  # c,c1,c,hc
dihedral_coeff	 6 aat  -22.04500  112.67000  112.67000  # c,c1,c1,c
dihedral_coeff	 7 aat  -22.04500  112.67000  112.67000  # c,c1,c1,c1
dihedral_coeff	 8 aat  -22.04500  112.67000  112.67000  # c,c1,c1,c3h
dihedral_coeff	 9 aat  -16.16400  112.67000  110.77000  # c,c1,c1,hc
dihedral_coeff	10 aat  -29.04200  112.67000  111.27000  # c,c1,c1,o3e
dihedral_coeff	11 aat  -29.04200  112.67000  111.27000  # c,c1,c1,oc
dihedral_coeff	12 aat  -29.04200  112.67000  111.27000  # c,c1,c1,oh
dihedral_coeff	13 aat  -19.00590  111.27000  104.50000  # c,c1,o3e,c1
dihedral_coeff	14 aat  -19.00590  111.27000  104.50000  # c,c1,oc,c1
dihedral_coeff	15 aat  -22.04500  112.67000  112.67000  # c,c3h,c3h,c1
dihedral_coeff	16 aat  -16.16400  112.67000  110.77000  # c,c3h,c3h,hc
dihedral_coeff	17 aat  -29.04200  112.67000  111.27000  # c,c3h,c3h,o3e
dihedral_coeff	18 aat  -19.00590  111.27000  104.50000  # c,c3h,o3e,c3h
dihedral_coeff	19 aat  -22.04500  112.67000  112.67000  # c1,c,c,c1
dihedral_coeff	20 aat  -16.16400  112.67000  110.77000  # c1,c,c,hc
dihedral_coeff	21 aat  -22.04500  112.67000  112.67000  # c1,c,c1,c1
dihedral_coeff	22 aat  -16.16400  112.67000  110.77000  # c1,c,c1,hc
dihedral_coeff	23 aat  -29.04200  112.67000  111.27000  # c1,c,c1,o3e
dihedral_coeff	24 aat  -29.04200  112.67000  111.27000  # c1,c,c1,oc
dihedral_coeff	25 aat  -22.04500  112.67000  112.67000  # c1,c,c3h,c3h
dihedral_coeff	26 aat  -16.16400  112.67000  110.77000  # c1,c,c3h,hc
dihedral_coeff	27 aat  -29.04200  112.67000  111.27000  # c1,c,c3h,o3e
dihedral_coeff	28 aat  -22.04500  112.67000  112.67000  # c1,c1,c,c3h
dihedral_coeff	29 aat  -16.16400  112.67000  110.77000  # c1,c1,c,hc
dihedral_coeff	30 aat  -22.04500  112.67000  112.67000  # c1,c1,c1,c1
dihedral_coeff	31 aat  -22.04500  112.67000  112.67000  # c1,c1,c1,c3h
dihedral_coeff	32 aat  -16.16400  112.67000  110.77000  # c1,c1,c1,hc
dihedral_coeff	33 aat  -29.04200  112.67000  111.27000  # c1,c1,c1,o3e
dihedral_coeff	34 aat  -29.04200  112.67000  111.27000  # c1,c1,c1,oc
dihedral_coeff	35 aat  -29.04200  112.67000  111.27000  # c1,c1,c1,oh
dihedral_coeff	36 aat  -22.04500  112.67000  112.67000  # c1,c1,c3h,c3h
dihedral_coeff	37 aat  -16.16400  112.67000  110.77000  # c1,c1,c3h,hc
dihedral_coeff	38 aat  -29.04200  112.67000  111.27000  # c1,c1,c3h,o3e
dihedral_coeff	39 aat  -19.00590  111.27000  104.50000  # c1,c1,o3e,c1
dihedral_coeff	40 aat  -19.00590  111.27000  104.50000  # c1,c1,oc,c1
dihedral_coeff	41 aat    0.00000  111.27000  109.00000  # c1,c1,oh,h
dihedral_coeff	42 aat  -16.16400  112.67000  110.77000  # c1,c3h,c3h,hc
dihedral_coeff	43 aat  -29.04200  112.67000  111.27000  # c1,c3h,c3h,o3e
dihedral_coeff	44 aat  -19.00590  111.27000  104.50000  # c1,c3h,o3e,c3h
dihedral_coeff	45 aat  -16.44380  104.50000  108.72800  # c1,o3e,c1,hc
dihedral_coeff	46 aat  -16.44380  104.50000  108.72800  # c1,oc,c1,hc
dihedral_coeff	47 aat  -16.16400  112.67000  110.77000  # c3h,c,c1,hc
dihedral_coeff	48 aat  -16.16400  112.67000  110.77000  # c3h,c1,c1,hc
dihedral_coeff	49 aat  -16.16400  112.67000  110.77000  # c3h,c3h,c,hc
dihedral_coeff	50 aat  -16.16400  112.67000  110.77000  # c3h,c3h,c1,hc
dihedral_coeff	51 aat  -16.44380  104.50000  108.72800  # c3h,o3e,c3h,hc
dihedral_coeff	52 aat    0.00000  109.00000  108.72800  # h,oh,c1,hc
dihedral_coeff	53 aat  -12.56400  110.77000  110.77000  # hc,c,c,hc
dihedral_coeff	54 aat  -12.56400  110.77000  110.77000  # hc,c,c1,hc
dihedral_coeff	55 aat  -20.20060  110.77000  111.27000  # hc,c,c1,o3e
dihedral_coeff	56 aat  -20.20060  110.77000  111.27000  # hc,c,c1,oc
dihedral_coeff	57 aat  -12.56400  110.77000  110.77000  # hc,c,c3h,hc
dihedral_coeff	58 aat  -20.20060  110.77000  111.27000  # hc,c,c3h,o3e
dihedral_coeff	59 aat  -12.56400  110.77000  110.77000  # hc,c1,c1,hc
dihedral_coeff	60 aat  -20.20060  110.77000  111.27000  # hc,c1,c1,o3e
dihedral_coeff	61 aat  -20.20060  110.77000  111.27000  # hc,c1,c1,oc
dihedral_coeff	62 aat  -20.20060  110.77000  111.27000  # hc,c1,c1,oh
dihedral_coeff	63 aat  -12.56400  110.77000  110.77000  # hc,c1,c3h,hc
dihedral_coeff	64 aat  -20.20060  110.77000  111.27000  # hc,c1,c3h,o3e
dihedral_coeff	65 aat  -12.56400  110.77000  110.77000  # hc,c3h,c3h,hc
dihedral_coeff	66 aat  -20.20060  110.77000  111.27000  # hc,c3h,c3h,o3e
dihedral_coeff	67 aat  -14.04840  111.27000  111.27000  # oc,c1,c1,oc
dihedral_coeff	68 aat  -14.04840  111.27000  111.27000  # oc,c1,c1,oh

# BondBond13 Coeffs

dihedral_coeff	 1 bb13    0.00000    1.53000    1.53000  # c,c,c1,c1
dihedral_coeff	 2 bb13    0.00000    1.53000    1.10100  # c,c,c1,hc
dihedral_coeff	 3 bb13    0.00000    1.53000    1.42000  # c,c,c1,oc
dihedral_coeff	 4 bb13    0.00000    1.53000    1.53000  # c,c1,c,c1
dihedral_coeff	 5 bb13    0.00000    1.53000    1.10100  # c,c1,c,hc
dihedral_coeff	 6 bb13    0.00000    1.53000    1.53000  # c,c1,c1,c
dihedral_coeff	 7 bb13    0.00000    1.53000    1.53000  # c,c1,c1,c1
dihedral_coeff	 8 bb13    0.00000    1.53000    1.53000  # c,c1,c1,c3h
dihedral_coeff	 9 bb13    0.00000    1.53000    1.10100  # c,c1,c1,hc
dihedral_coeff	10 bb13    0.00000    1.53000    1.42000  # c,c1,c1,o3e
dihedral_coeff	11 bb13    0.00000    1.53000    1.42000  # c,c1,c1,oc
dihedral_coeff	12 bb13    0.00000    1.53000    1.42000  # c,c1,c1,oh
dihedral_coeff	13 bb13    0.00000    1.53000    1.42000  # c,c1,o3e,c1
dihedral_coeff	14 bb13    0.00000    1.53000    1.42000  # c,c1,oc,c1
dihedral_coeff	15 bb13    0.00000    1.53000    1.53000  # c,c3h,c3h,c1
dihedral_coeff	16 bb13    0.00000    1.53000    1.10100  # c,c3h,c3h,hc
dihedral_coeff	17 bb13    0.00000    1.53000    1.42000  # c,c3h,c3h,o3e
dihedral_coeff	18 bb13    0.00000    1.53000    1.42000  # c,c3h,o3e,c3h
dihedral_coeff	19 bb13    0.00000    1.53000    1.53000  # c1,c,c,c1
dihedral_coeff	20 bb13    0.00000    1.53000    1.10100  # c1,c,c,hc
dihedral_coeff	21 bb13    0.00000    1.53000    1.53000  # c1,c,c1,c1
dihedral_coeff	22 bb13    0.00000    1.53000    1.10100  # c1,c,c1,hc
dihedral_coeff	23 bb13    0.00000    1.53000    1.42000  # c1,c,c1,o3e
dihedral_coeff	24 bb13    0.00000    1.53000    1.42000  # c1,c,c1,oc
dihedral_coeff	25 bb13    0.00000    1.53000    1.53000  # c1,c,c3h,c3h
dihedral_coeff	26 bb13    0.00000    1.53000    1.10100  # c1,c,c3h,hc
dihedral_coeff	27 bb13    0.00000    1.53000    1.42000  # c1,c,c3h,o3e
dihedral_coeff	28 bb13    0.00000    1.53000    1.53000  # c1,c1,c,c3h
dihedral_coeff	29 bb13    0.00000    1.53000    1.10100  # c1,c1,c,hc
dihedral_coeff	30 bb13    0.00000    1.53000    1.53000  # c1,c1,c1,c1
dihedral_coeff	31 bb13    0.00000    1.53000    1.53000  # c1,c1,c1,c3h
dihedral_coeff	32 bb13    0.00000    1.53000    1.10100  # c1,c1,c1,hc
dihedral_coeff	33 bb13    0.00000    1.53000    1.42000  # c1,c1,c1,o3e
dihedral_coeff	34 bb13    0.00000    1.53000    1.42000  # c1,c1,c1,oc
dihedral_coeff	35 bb13    0.00000    1.53000    1.42000  # c1,c1,c1,oh
dihedral_coeff	36 bb13    0.00000    1.53000    1.53000  # c1,c1,c3h,c3h
dihedral_coeff	37 bb13    0.00000    1.53000    1.10100  # c1,c1,c3h,hc
dihedral_coeff	38 bb13    0.00000    1.53000    1.42000  # c1,c1,c3h,o3e
dihedral_coeff	39 bb13    0.00000    1.53000    1.42000  # c1,c1,o3e,c1
dihedral_coeff	40 bb13    0.00000    1.53000    1.42000  # c1,c1,oc,c1
dihedral_coeff	41 bb13    0.00000    1.53000    0.96000  # c1,c1,oh,h
dihedral_coeff	42 bb13    0.00000    1.53000    1.10100  # c1,c3h,c3h,hc
dihedral_coeff	43 bb13    0.00000    1.53000    1.42000  # c1,c3h,c3h,o3e
dihedral_coeff	44 bb13    0.00000    1.53000    1.42000  # c1,c3h,o3e,c3h
dihedral_coeff	45 bb13    0.00000    1.42000    1.10100  # c1,o3e,c1,hc
dihedral_coeff	46 bb13    0.00000    1.42000    1.10100  # c1,oc,c1,hc
dihedral_coeff	47 bb13    0.00000    1.53000    1.10100  # c3h,c,c1,hc
dihedral_coeff	48 bb13    0.00000    1.53000    1.10100  # c3h,c1,c1,hc
dihedral_coeff	49 bb13    0.00000    1.53000    1.10100  # c3h,c3h,c,hc
dihedral_coeff	50 bb13    0.00000    1.53000    1.10100  # c3h,c3h,c1,hc
dihedral_coeff	51 bb13    0.00000    1.42000    1.10100  # c3h,o3e,c3h,hc
dihedral_coeff	52 bb13    0.00000    0.96000    1.10100  # h,oh,c1,hc
dihedral_coeff	53 bb13    0.00000    1.10100    1.10100  # hc,c,c,hc
dihedral_coeff	54 bb13    0.00000    1.10100    1.10100  # hc,c,c1,hc
dihedral_coeff	55 bb13    0.00000    1.10100    1.42000  # hc,c,c1,o3e
dihedral_coeff	56 bb13    0.00000    1.10100    1.42000  # hc,c,c1,oc
dihedral_coeff	57 bb13    0.00000    1.10100    1.10100  # hc,c,c3h,hc
dihedral_coeff	58 bb13    0.00000    1.10100    1.42000  # hc,c,c3h,o3e
dihedral_coeff	59 bb13    0.00000    1.10100    1.10100  # hc,c1,c1,hc
dihedral_coeff	60 bb13    0.00000    1.10100    1.42000  # hc,c1,c1,o3e
dihedral_coeff	61 bb13    0.00000    1.10100    1.42000  # hc,c1,c1,oc
dihedral_coeff	62 bb13    0.00000    1.10100    1.42000  # hc,c1,c1,oh
dihedral_coeff	63 bb13    0.00000    1.10100    1.10100  # hc,c1,c3h,hc
dihedral_coeff	64 bb13    0.00000    1.10100    1.42000  # hc,c1,c3h,o3e
dihedral_coeff	65 bb13    0.00000    1.10100    1.10100  # hc,c3h,c3h,hc
dihedral_coeff	66 bb13    0.00000    1.10100    1.42000  # hc,c3h,c3h,o3e
dihedral_coeff	67 bb13    0.00000    1.42000    1.42000  # oc,c1,c1,oc
dihedral_coeff	68 bb13    0.00000    1.42000    1.42000  # oc,c1,c1,oh

# Improper Coeffs

improper_coeff	 1    0.00000    0.00000  # c,c,c1,hc
improper_coeff	 2    0.00000    0.00000  # c,c,hc,c1
improper_coeff	 3    0.00000    0.00000  # c,c,hc,hc
improper_coeff	 4    0.00000    0.00000  # c,c1,c1,hc
improper_coeff	 5    0.00000    0.00000  # c,c1,hc,c3h
improper_coeff	 6    0.00000    0.00000  # c,c1,hc,hc
improper_coeff	 7    0.00000    0.00000  # c,c3h,hc,hc
improper_coeff	 8    0.00000    0.00000  # c1,c,c,c1
improper_coeff	 9    0.00000    0.00000  # c1,c,c,hc
improper_coeff	10    0.00000    0.00000  # c1,c,c1,c1
improper_coeff	11    0.00000    0.00000  # c1,c,c1,hc
improper_coeff	12    0.00000    0.00000  # c1,c,c1,oc
improper_coeff	13    0.00000    0.00000  # c1,c,hc,c1
improper_coeff	14    0.00000    0.00000  # c1,c,hc,oc
improper_coeff	15    0.00000    0.00000  # c1,c,o3e,c1
improper_coeff	16    0.00000    0.00000  # c1,c,o3e,hc
improper_coeff	17    0.00000    0.00000  # c1,c,oc,c1
improper_coeff	18    0.00000    0.00000  # c1,c,oc,hc
improper_coeff	19    0.00000    0.00000  # c1,c1,c1,c1
improper_coeff	20    0.00000    0.00000  # c1,c1,c1,c3h
improper_coeff	21    0.00000    0.00000  # c1,c1,c1,hc
improper_coeff	22    0.00000    0.00000  # c1,c1,c1,o3e
improper_coeff	23    0.00000    0.00000  # c1,c1,c1,oc
improper_coeff	24    0.00000    0.00000  # c1,c1,c1,oh
improper_coeff	25    0.00000    0.00000  # c1,c1,c3h,hc
improper_coeff	26    0.00000    0.00000  # c1,c1,hc,c3h
improper_coeff	27    0.00000    0.00000  # c1,c1,hc,o3e
improper_coeff	28    0.00000    0.00000  # c1,c1,hc,oc
improper_coeff	29    0.00000    0.00000  # c1,c1,hc,oh
improper_coeff	30    0.00000    0.00000  # c1,c1,o3e,hc
improper_coeff	31    0.00000    0.00000  # c1,c1,oc,hc
improper_coeff	32    0.00000    0.00000  # c3h,c,hc,c3h
improper_coeff	33    0.00000    0.00000  # c3h,c,o3e,c3h
improper_coeff	34    0.00000    0.00000  # c3h,c,o3e,hc
improper_coeff	35    0.00000    0.00000  # c3h,c1,c3h,hc
improper_coeff	36    0.00000    0.00000  # c3h,c1,c3h,o3e
improper_coeff	37    0.00000    0.00000  # c3h,c1,o3e,hc
improper_coeff	38    0.00000    0.00000  # c3h,c3h,o3e,hc

# AngleAngle Coeffs

improper_coeff	 1 aa    0.00000   -1.31990    0.00000  112.67000  110.77000  110.77000  # c,c,c1,hc
improper_coeff	 2 aa    0.00000   -1.31990    0.00000  110.77000  112.67000  110.77000  # c,c,hc,c1
improper_coeff	 3 aa    0.00000   -0.48250    0.00000  110.77000  110.77000  107.66000  # c,c,hc,hc
improper_coeff	 4 aa   -1.31990   -1.31990    0.11840  112.67000  110.77000  110.77000  # c,c1,c1,hc
improper_coeff	 5 aa    0.11840    0.00000   -1.31990  110.77000  112.67000  110.77000  # c,c1,hc,c3h
improper_coeff	 6 aa    0.27380   -0.48250    0.27380  110.77000  110.77000  107.66000  # c,c1,hc,hc
improper_coeff	 7 aa    0.00000   -0.48250    0.00000  110.77000  110.77000  107.66000  # c,c3h,hc,hc
improper_coeff	 8 aa    0.00000    0.00000   -0.17290  112.67000  112.67000  112.67000  # c1,c,c,c1
improper_coeff	 9 aa    0.00000    0.00000    0.11840  112.67000  110.77000  110.77000  # c1,c,c,hc
improper_coeff	10 aa    0.00000   -0.17290    0.00000  112.67000  112.67000  112.67000  # c1,c,c1,c1
improper_coeff	11 aa    0.00000   -1.31990    0.00000  112.67000  110.77000  110.77000  # c1,c,c1,hc
improper_coeff	12 aa    0.00000   -0.83300    0.00000  112.67000  111.27000  111.27000  # c1,c,c1,oc
improper_coeff	13 aa    0.00000   -1.31990    0.00000  110.77000  112.67000  110.77000  # c1,c,hc,c1
improper_coeff	14 aa    0.00000    2.59260    0.00000  110.77000  111.27000  108.72800  # c1,c,hc,oc
improper_coeff	15 aa    0.00000   -0.83300   -0.83300  111.27000  112.67000  111.27000  # c1,c,o3e,c1
improper_coeff	16 aa    0.00000    2.59260    3.91770  111.27000  110.77000  108.72800  # c1,c,o3e,hc
improper_coeff	17 aa    0.00000   -0.83300    0.00000  111.27000  112.67000  111.27000  # c1,c,oc,c1
improper_coeff	18 aa    0.00000    2.59260    0.00000  111.27000  110.77000  108.72800  # c1,c,oc,hc
improper_coeff	19 aa   -0.17290   -0.17290   -0.17290  112.67000  112.67000  112.67000  # c1,c1,c1,c1
improper_coeff	20 aa   -0.17290   -0.17290   -0.17290  112.67000  112.67000  112.67000  # c1,c1,c1,c3h
improper_coeff	21 aa   -1.31990   -1.31990    0.11840  112.67000  110.77000  110.77000  # c1,c1,c1,hc
improper_coeff	22 aa   -0.83300   -0.83300   -3.57440  112.67000  111.27000  111.27000  # c1,c1,c1,o3e
improper_coeff	23 aa   -0.83300   -0.83300   -3.57440  112.67000  111.27000  111.27000  # c1,c1,c1,oc
improper_coeff	24 aa    0.00000    0.00000   -3.57440  112.67000  111.27000  111.27000  # c1,c1,c1,oh
improper_coeff	25 aa   -1.31990    0.00000    0.11840  112.67000  110.77000  110.77000  # c1,c1,c3h,hc
improper_coeff	26 aa    0.11840    0.00000   -1.31990  110.77000  112.67000  110.77000  # c1,c1,hc,c3h
improper_coeff	27 aa    3.91770    2.59260    0.16890  110.77000  111.27000  108.72800  # c1,c1,hc,o3e
improper_coeff	28 aa    3.91770    2.59260    0.16890  110.77000  111.27000  108.72800  # c1,c1,hc,oc
improper_coeff	29 aa    0.00000    0.00000    0.16890  110.77000  111.27000  108.72800  # c1,c1,hc,oh
improper_coeff	30 aa    0.16890    2.59260    3.91770  111.27000  110.77000  108.72800  # c1,c1,o3e,hc
improper_coeff	31 aa    0.16890    2.59260    3.91770  111.27000  110.77000  108.72800  # c1,c1,oc,hc
improper_coeff	32 aa    0.11840    0.00000    0.00000  110.77000  112.67000  110.77000  # c3h,c,hc,c3h
improper_coeff	33 aa   -3.57440    0.00000   -0.83300  111.27000  112.67000  111.27000  # c3h,c,o3e,c3h
improper_coeff	34 aa    0.00000    2.59260    3.91770  111.27000  110.77000  108.72800  # c3h,c,o3e,hc
improper_coeff	35 aa   -1.31990    0.00000    0.11840  112.67000  110.77000  110.77000  # c3h,c1,c3h,hc
improper_coeff	36 aa   -0.83300    0.00000   -3.57440  112.67000  111.27000  111.27000  # c3h,c1,c3h,o3e
improper_coeff	37 aa    0.16890    2.59260    3.91770  111.27000  110.77000  108.72800  # c3h,c1,o3e,hc
improper_coeff	38 aa    0.00000    2.59260    0.00000  111.27000  110.77000  108.72800  # c3h,c3h,o3e,hc

# ------------------------------- OPT Section -------------------------------
minimize 1.0e-5 1.0e-7 100000 400000
Generated 28 of 28 mixed pair_coeff terms from sixthpower/geometric mixing rule
Neighbor list info ...
  update: every = 1 steps, delay = 0 steps, check = yes
  max neighbors/atom: 2000, page size: 100000
  master list distance cutoff = 12
  ghost atom cutoff = 12
  binsize = 6, bins = 4 4 4
  1 neighbor lists, perpetual/occasional/extra = 1 0 0
  (1) pair lj/class2/coul/cut, perpetual
      attributes: half, newton on
      pair build: half/bin/newton
      stencil: half/bin/3d
      bin: standard
Per MPI rank memory allocation (min/avg/max) = 28.72 | 29.05 | 29.51 Mbytes
   Step          Temp          E_pair         E_mol          TotEng         Press     
         0   0             -22.148786      613.51741      591.36862     -2751.4307    
        30   0             -20.533792      468.51069      447.97689     -5.2137061    
Loop time of 0.02237 on 6 procs for 30 steps with 74 atoms

98.0% CPU use with 6 MPI tasks x no OpenMP threads

Minimization stats:
  Stopping criterion = linesearch alpha is zero
  Energy initial, next-to-last, final = 
       591.36862026566   447.976892928703   447.976892928703
  Force two-norm initial, final = 272.72269 19.340882
  Force max component initial, final = 60.959525 4.9339297
  Final line search alpha, max atom move = 2.793026e-11 1.3780594e-10
  Iterations, force evaluations = 30 111

MPI task timing breakdown:
Section |  min time  |  avg time  |  max time  |%varavg| %total
---------------------------------------------------------------
Pair    | 3.4311e-05 | 0.00061638 | 0.0014037  |   0.0 |  2.76
Bond    | 2.4508e-05 | 0.0038829  | 0.012117   |   7.6 | 17.36
Neigh   | 4.7228e-05 | 5.0436e-05 | 5.335e-05  |   0.0 |  0.23
Comm    | 0.0071807  | 0.014147   | 0.020255   |   4.1 | 63.24
Output  | 0          | 0          | 0          |   0.0 |  0.00
Modify  | 0          | 0          | 0          |   0.0 |  0.00
Other   |            | 0.003673   |            |       | 16.42

Nlocal:        12.3333 ave          39 max           0 min
Histogram: 3 0 0 1 0 1 0 0 0 1
Nghost:          495.5 ave         697 max         379 min
Histogram: 2 0 1 1 0 1 0 0 0 1
Neighs:        334.333 ave         704 max           0 min
Histogram: 3 0 0 0 0 0 0 1 0 2

Total # of neighbors = 2006
Ave neighs/atom = 27.108108
Ave special neighs/atom = 13.972973
Neighbor list builds = 1
Dangerous builds = 0
# ------------------------------- Run Section -------------------------------
#

thermo_style custom step temp pe evdwl ecoul ebond eangle edihed eimp density vol
thermo          100

fix Langevin  all langevin 300 300 100.0 482432
fix moveLimit all nve/limit 0.1
run 20000
Generated 28 of 28 mixed pair_coeff terms from sixthpower/geometric mixing rule
Per MPI rank memory allocation (min/avg/max) = 27.72 | 27.94 | 28.38 Mbytes
   Step          Temp          PotEng         E_vdwl         E_coul         E_bond        E_angle        E_dihed        E_impro        Density         Volume    
        30   0              447.97689      5.5487327     -26.082525      8.7667508      573.4671      -109.77798     -3.9451831      0.099999998    8213.5863    
       100   176.15498      481.48219      7.5030896     -25.541091      29.68017       581.82287     -108.15922     -3.8236322      0.099999998    8213.5863    
       200   293.63713      494.71019      2.3157016     -24.671307      25.845196      603.14731     -107.34192     -4.584787       0.099999998    8213.5863    
       300   271.10732      494.30089      3.1859356     -29.577569      32.306113      602.8516      -110.98636     -3.4788267      0.099999998    8213.5863    
       400   325.97469      501.34108      1.729921      -28.027554      36.575485      598.88607     -103.04192     -4.7809219      0.099999998    8213.5863    
       500   366.58081      492.29156      2.5171874     -29.030837      23.351974      617.22389     -115.78041     -5.9902462      0.099999998    8213.5863    
       600   295.35688      498.37129      4.4461241     -29.334079      34.92043       602.6444      -111.08274     -3.2228414      0.099999998    8213.5863    
       700   305.03831      493.7508       1.1059107     -30.463807      37.410064      605.72098     -115.6448      -4.3775499      0.099999998    8213.5863    
       800   385.77963      487.4253       2.3328057     -31.308483      30.233165      596.42243     -105.41223     -4.8423846      0.099999998    8213.5863    
       900   279.40917      496.40743      4.4812153     -27.982265      42.789225      595.70712     -115.28067     -3.3071943      0.099999998    8213.5863    
      1000   313.36176      502.22457      0.48194507    -29.107551      31.013153      614.68206     -110.53538     -4.3096616      0.099999998    8213.5863    
      1100   312.90437      505.55005     -0.43411782    -29.94781       45.053388      601.65124     -107.97965     -2.7930025      0.099999998    8213.5863    
      1200   285.56012      503.83435      4.2868346     -26.290733      33.00037       607.53975     -108.45056     -6.2513008      0.099999998    8213.5863    
      1300   311.69564      497.65257     -1.9847322     -24.890756      29.655337      613.22116     -113.85558     -4.4928659      0.099999998    8213.5863    
      1400   300.25877      499.59116      3.143402      -26.313214      33.950386      609.78703     -115.12761     -5.8488342      0.099999998    8213.5863    
      1500   297.96153      494.77264      1.7393897     -28.992966      39.176261      591.71503     -103.75995     -5.1051255      0.099999998    8213.5863    
      1600   340.00103      507.96219      2.4420533     -29.544464      41.53132       602.47425     -104.27281     -4.6681617      0.099999998    8213.5863    
      1700   288.78106      497.58892      2.5866525     -27.774601      36.56707       591.00971     -102.51953     -2.2803862      0.099999998    8213.5863    
      1800   285.31139      501.74311      0.8650338     -23.742976      32.750566      606.87677     -111.11137     -3.8949111      0.099999998    8213.5863    
      1900   326.59947      494.80316      0.62949734    -27.61763       32.043154      584.82681     -90.660299     -4.4183661      0.099999998    8213.5863    
      2000   281.79225      502.04461      2.9795663     -27.54189       41.824029      598.07574     -110.03512     -3.2577149      0.099999998    8213.5863    
      2100   291.45369      499.21397      4.3136909     -28.778587      32.254342      606.08457     -111.16937     -3.4906768      0.099999998    8213.5863    
      2200   269.27113      503.55876      4.9805729     -29.884306      30.865177      611.55213     -110.46757     -3.4872485      0.099999998    8213.5863    
      2300   267.69511      488.56089      1.1048012     -29.753926      34.157304      606.28168     -119.10333     -4.1256433      0.099999998    8213.5863    
      2400   297.91991      494.29514      5.5845575     -30.890064      29.737911      594.04216     -101.08312     -3.0962986      0.099999998    8213.5863    
      2500   282.34147      485.83952      6.5338947     -31.802639      30.733248      592.03234     -107.39851     -4.2588049      0.099999998    8213.5863    
      2600   262.58417      495.96156      0.90029509    -31.197333      35.64412       604.51334     -109.54301     -4.3558538      0.099999998    8213.5863    
      2700   334.59389      496.993        1.0311725     -30.120324      33.224292      599.08992     -102.51452     -3.7175447      0.099999998    8213.5863    
      2800   335.91982      496.90164      2.5356808     -30.939587      44.872777      599.35462     -115.13149     -3.7903624      0.099999998    8213.5863    
      2900   328.93935      500.47304      3.2506002     -28.557054      38.798341      592.61615     -101.54395     -4.0910466      0.099999998    8213.5863    
      3000   261.32826      503.63647      3.2613566     -31.395751      39.445045      620.74938     -123.68359     -4.7399728      0.099999998    8213.5863    
      3100   270.79122      484.80254      2.0733222     -34.091729      34.229935      595.39476     -110.01567     -2.7880812      0.099999998    8213.5863    
      3200   281.00259      502.47834      5.1978447     -27.018334      38.394293      600.76298     -111.31205     -3.546385       0.099999998    8213.5863    
      3300   287.87169      499.55531      2.6739569     -26.769449      29.45669       610.43558     -111.14271     -5.0987549      0.099999998    8213.5863    
      3400   342.81239      505.26086      6.7069817     -23.169547      32.896155      605.15054     -112.79643     -3.5268366      0.099999998    8213.5863    
      3500   307.6489       513.18296      2.2187331     -18.590898      39.013311      592.9023      -98.912405     -3.4480799      0.099999998    8213.5863    
      3600   331.2779       513.53818      4.0792694     -23.790524      43.972012      602.081       -108.21132     -4.5922531      0.099999998    8213.5863    
      3700   292.04462      511.31589      3.997876      -20.556778      44.083286      609.79669     -119.58742     -6.4177689      0.099999998    8213.5863    
      3800   315.84291      506.90773      4.7686187     -17.920708      37.495978      607.38536     -120.72623     -4.0952858      0.099999998    8213.5863    
      3900   295.36003      501.46954      1.8858494     -23.909364      33.948337      595.85475     -102.34591     -3.9641194      0.099999998    8213.5863    
      4000   256.533        508.9955       4.4928993     -14.970109      33.777938      603.35757     -113.80356     -3.8592378      0.099999998    8213.5863    
      4100   282.99947      498.43755      1.7716223     -19.340384      27.748377      601.25688     -109.12866     -3.8702919      0.099999998    8213.5863    
      4200   369.14         503.23419      0.7408215     -21.488238      39.239101      598.38359     -110.09579     -3.5452857      0.099999998    8213.5863    
      4300   328.82653      491.40343      1.5928767     -24.552069      30.782423      603.9507      -116.16702     -4.2034823      0.099999998    8213.5863    
      4400   318.12782      507.21457      1.5991061     -24.011464      31.42544       598.7982      -98.929071     -1.6676347      0.099999998    8213.5863    
      4500   290.1018       506.65316      2.4228181     -26.124579      38.871908      605.2213      -110.05312     -3.6851703      0.099999998    8213.5863    
      4600   297.66372      508.06268      0.66469412    -26.680025      39.687514      592.35968     -96.117488     -1.8516952      0.099999998    8213.5863    
      4700   341.15361      503.97131      0.51250313    -19.367102      43.946456      594.29696     -112.26275     -3.1547612      0.099999998    8213.5863    
      4800   322.02445      496.75526      1.8366963     -22.231228      26.081597      611.53772     -115.61755     -4.8519668      0.099999998    8213.5863    
      4900   286.39999      517.56957     -1.8604222     -18.669848      36.048723      610.66128     -105.15697     -3.4531893      0.099999998    8213.5863    
      5000   303.82848      508.82921      3.5213773     -19.647036      33.426548      608.52301     -112.38593     -4.608768       0.099999998    8213.5863    
      5100   265.01807      502.18143     -1.2964657     -17.45883       33.644207      613.35778     -122.20301     -3.8622484      0.099999998    8213.5863    
      5200   292.39135      501.90177      0.93653874    -19.38647       27.23771       607.85842     -111.44772     -3.2967059      0.099999998    8213.5863    
      5300   330.79879      501.04509      2.9802095     -20.323269      26.3582        609.47591     -113.5981      -3.8478653      0.099999998    8213.5863    
      5400   310.88685      503.81811      2.1772549     -22.24666       33.851241      602.88805     -109.69441     -3.1573582      0.099999998    8213.5863    
      5500   304.97649      498.94258      2.5669709     -24.500727      34.175704      599.3543      -109.89201     -2.7616467      0.099999998    8213.5863    
      5600   296.24458      506.21823      0.54311286    -26.121248      36.187352      607.32006     -106.64847     -5.0625709      0.099999998    8213.5863    
      5700   306.30124      513.04487      5.6841127     -27.935052      39.589561      607.6161      -108.29        -3.6198526      0.099999998    8213.5863    
      5800   374.4655       513.23374     -1.2925287     -26.661312      39.010348      612.20122     -108.08213     -1.9418565      0.099999998    8213.5863    
      5900   317.97888      508.97428      2.6708162     -27.387075      42.996944      597.91411     -103.58086     -3.6396543      0.099999998    8213.5863    
      6000   323.28753      504.37862      4.2833075     -25.092646      38.628646      608.42096     -116.87896     -4.9826875      0.099999998    8213.5863    
      6100   327.7485       509.70895      2.0607717     -21.65948       35.380576      598.85794     -102.43511     -2.4957399      0.099999998    8213.5863    
      6200   275.15528      505.93079     -1.0683415     -21.209756      37.020123      596.49392     -102.20209     -3.1030689      0.099999998    8213.5863    
      6300   262.6143       497.94369      3.1952828     -29.054663      39.340991      594.55089     -106.28925     -3.7995534      0.099999998    8213.5863    
      6400   341.7851       505.35367      10.930625     -27.443497      28.976596      607.13053     -108.58412     -5.6564697      0.099999998    8213.5863    
      6500   295.65152      499.46045      4.1448146     -29.591298      27.094804      617.89031     -115.28093     -4.7972589      0.099999998    8213.5863    
      6600   283.79972      502.97363      1.4448333     -25.651207      35.864695      601.27763     -105.50604     -4.4562814      0.099999998    8213.5863    
      6700   287.73226      497.86663      1.3321067     -25.941392      32.518591      598.09735     -104.03336     -4.1066585      0.099999998    8213.5863    
      6800   295.9335       500.33208      4.5079818     -24.39678       36.238223      609.08397     -119.23515     -5.8661774      0.099999998    8213.5863    
      6900   326.34373      497.81902      3.0785064     -28.258673      36.330807      583.43187     -92.802994     -3.9604921      0.099999998    8213.5863    
      7000   319.49936      517.02491      4.6316274     -30.053857      46.792242      610.72813     -109.19435     -5.8788802      0.099999998    8213.5863    
      7100   289.41508      495.5968       3.84081       -24.863446      32.344343      605.12288     -115.46354     -5.384252       0.099999998    8213.5863    
      7200   274.36941      491.17158      2.6518229     -27.066179      28.763881      584.35139     -94.981266     -2.5480682      0.099999998    8213.5863    
      7300   302.42776      505.81916      6.7811267     -28.58313       35.216327      599.39752     -103.62148     -3.3712071      0.099999998    8213.5863    
      7400   319.05784      505.59352      5.7252029     -21.264918      36.956796      596.99589     -108.45939     -4.3600631      0.099999998    8213.5863    
      7500   320.81501      513.60828     -1.0119043     -22.313133      35.629255      616.92947     -110.54373     -5.0816822      0.099999998    8213.5863    
      7600   328.18219      507.48296      0.92872108    -25.727578      38.62422       611.90956     -113.30016     -4.9518018      0.099999998    8213.5863    
      7700   253.19841      500.21597      1.300197      -22.715447      37.448396      596.48564     -108.57222     -3.7305932      0.099999998    8213.5863    
      7800   273.08229      496.55837      2.0940123     -24.942294      34.495437      591.05145     -102.81092     -3.3293095      0.099999998    8213.5863    
      7900   299.91558      497.33954      4.5540813     -25.963116      21.020027      606.57187     -104.6122      -4.2311276      0.099999998    8213.5863    
      8000   352.1297       495.91216     -0.36782813    -20.795412      29.891391      598.0173      -105.49301     -5.3402717      0.099999998    8213.5863    
      8100   282.39712      506.5522       2.7220953     -25.215537      35.816314      615.55359     -117.56035     -4.763923       0.099999998    8213.5863    
      8200   287.2521       509.54344     -1.7907637     -27.575654      34.896872      601.04227     -94.710495     -2.3187906      0.099999998    8213.5863    
      8300   311.2765       502.3823       1.8076195     -26.140348      35.788371      614.11128     -118.70609     -4.4785301      0.099999998    8213.5863    
      8400   349.40813      507.07498     -0.091864231   -26.05321       41.489592      596.2273      -101.46775     -3.0290919      0.099999998    8213.5863    
      8500   315.01736      512.80165      0.02505108    -28.118326      41.248112      608.50941     -104.86428     -3.9983225      0.099999998    8213.5863    
      8600   288.58299      493.18322      0.69518503    -25.594592      32.157289      611.17066     -119.11807     -6.1272519      0.099999998    8213.5863    
      8700   293.72882      490.17618      4.462286      -27.865287      26.768608      595.98819     -104.86304     -4.3145746      0.099999998    8213.5863    
      8800   354.04029      500.88786      2.6953863     -27.843907      30.820404      606.27017     -106.87094     -4.1832575      0.099999998    8213.5863    
      8900   296.71789      512.38199      0.36761005    -26.966568      46.498427      596.90674     -101.18253     -3.2416905      0.099999998    8213.5863    
      9000   260.04844      507.44317      2.2688239     -27.891518      32.372268      609.34742     -106.04744     -2.6063841      0.099999998    8213.5863    
      9100   276.56103      503.73295      3.4133899     -26.963755      33.809717      604.13246     -106.87156     -3.7873028      0.099999998    8213.5863    
      9200   333.33236      501.09048      0.742452      -28.592843      36.648084      601.77909     -105.20789     -4.2784092      0.099999998    8213.5863    
      9300   339.7448       500.82328      2.6949771     -26.372363      30.464986      616.06835     -117.48674     -4.5459341      0.099999998    8213.5863    
      9400   336.06331      505.09017     -1.4691009     -25.549107      34.331865      610.96703     -109.14367     -4.0468541      0.099999998    8213.5863    
      9500   299.2092       505.43996      1.7447585     -25.420045      35.607003      607.51534     -109.53284     -4.4742604      0.099999998    8213.5863    
      9600   297.16052      501.17087      3.2015156     -24.707559      33.792067      603.78131     -111.1395      -3.7569576      0.099999998    8213.5863    
      9700   358.07228      513.76327      1.6635928     -24.299414      42.461657      605.07349     -105.36515     -5.770907       0.099999998    8213.5863    
      9800   287.65701      510.28463      2.1725272     -28.840934      40.077943      618.15608     -116.45177     -4.8292193      0.099999998    8213.5863    
      9900   311.54913      511.3568       0.78254394    -23.259278      36.79351       614.96754     -114.89458     -3.0329363      0.099999998    8213.5863    
     10000   264.66994      510.96932      4.0353119     -23.059354      40.509346      609.89125     -116.14821     -4.2590264      0.099999998    8213.5863    
     10100   320.25013      496.07678      8.152929      -26.267058      31.425251      595.88922     -109.24827     -3.875287       0.099999998    8213.5863    
     10200   332.9156       499.39453      7.2703219     -25.179795      27.643267      602.48402     -109.03271     -3.7905836      0.099999998    8213.5863    
     10300   295.69163      506.28911      5.1011256     -22.742245      36.572595      616.4508      -125.13438     -3.9587862      0.099999998    8213.5863    
     10400   309.25473      516.74186      6.2272962     -24.014367      36.805671      610.95457     -107.0043      -6.2270068      0.099999998    8213.5863    
     10500   316.7136       506.0334      -1.0823636     -22.069497      34.159537      615.23483     -116.01461     -4.1945031      0.099999998    8213.5863    
     10600   341.39139      508.17298      5.9027999     -23.026035      30.5024        603.63708     -105.91018     -2.9330743      0.099999998    8213.5863    
     10700   336.55311      505.92254      1.7625408     -25.243319      35.563614      594.18582     -97.298744     -3.0473776      0.099999998    8213.5863    
     10800   292.09851      502.02258      2.3262728     -21.703029      28.984305      614.91548     -118.85365     -3.6468053      0.099999998    8213.5863    
     10900   273.96058      496.478        2.0156576     -26.320376      32.27266       603.94415     -111.70128     -3.7328029      0.099999998    8213.5863    
     11000   291.90461      517.61973      4.9983114     -25.589983      40.518499      604.7947      -104.68879     -2.4130074      0.099999998    8213.5863    
     11100   316.46759      507.20841      0.17837509    -21.370733      28.812425      606.43295     -103.01559     -3.8290097      0.099999998    8213.5863    
     11200   320.33658      504.88605      1.6125622     -23.038376      35.516246      596.08675     -103.79783     -1.4932921      0.099999998    8213.5863    
     11300   255.91929      510.03405      1.6873079     -21.28244       40.421912      602.55507     -108.89092     -4.4568788      0.099999998    8213.5863    
     11400   312.12294      508.2009       2.050006      -24.250886      44.194201      606.27208     -115.75103     -4.3134706      0.099999998    8213.5863    
     11500   329.262        490.08993     -0.35317886    -27.903136      30.532626      603.4598      -110.49299     -5.1531902      0.099999998    8213.5863    
     11600   314.25977      486.9797       4.3377271     -25.812478      31.026126      596.48849     -114.81125     -4.2489122      0.099999998    8213.5863    
     11700   288.39475      504.01776      1.3538075     -21.496478      43.209556      600.98229     -115.91282     -4.1185906      0.099999998    8213.5863    
     11800   336.91782      499.2451       0.76622076    -24.06439       24.09778       614.08493     -111.60367     -4.0357654      0.099999998    8213.5863    
     11900   318.59124      510.14188      2.7138756     -25.633029      37.503397      609.79341     -110.30134     -3.9344307      0.099999998    8213.5863    
     12000   288.88465      513.70306      2.9588981     -23.361956      28.603431      623.57913     -112.17643     -5.9000152      0.099999998    8213.5863    
     12100   322.68967      499.40292      2.1301637     -29.432225      31.361457      606.15035     -107.34507     -3.4617566      0.099999998    8213.5863    
     12200   302.75148      505.96659      4.2856635     -31.894539      41.738959      615.29087     -118.39516     -5.059205       0.099999998    8213.5863    
     12300   325.75388      492.7289      -1.5638309     -26.799461      28.21144       601.79779     -104.79619     -4.1208438      0.099999998    8213.5863    
     12400   363.06236      506.89664     -3.7195423     -22.567534      42.516969      600.70434     -107.19808     -2.8395071      0.099999998    8213.5863    
     12500   316.32148      496.23731      1.8209189     -27.012548      35.323976      610.55625     -119.02981     -5.4214758      0.099999998    8213.5863    
     12600   338.52691      501.04593      1.9915937     -31.222451      44.566899      599.29992     -110.04909     -3.5409372      0.099999998    8213.5863    
     12700   323.89508      509.00586     -1.9994797     -31.860971      38.97578       614.44505     -107.28007     -3.2744489      0.099999998    8213.5863    
     12800   351.08934      494.90444      2.3057074     -32.776195      40.904484      595.3523      -106.29873     -4.5831249      0.099999998    8213.5863    
     12900   318.43357      505.93483     -1.1234924     -25.207489      37.783341      607.11396     -109.29477     -3.3367205      0.099999998    8213.5863    
     13000   296.70034      493.40738     -0.28037977    -25.842819      33.653146      590.17381     -101.33693     -2.9594583      0.099999998    8213.5863    
[...]
     40600   314.64963      501.51226     -1.2473168     -26.75596       33.466772      616.26394     -116.96045     -3.2547274      0.081454254    10083.68       0            
     40700   355.14103      497.38283      0.14669683    -25.613356      36.233161      598.75412     -109.03626     -3.1015312      0.081275186    10105.896      0            
     40800   311.84828      498.50516     -3.0796051     -23.409615      32.055822      600.74699     -104.88359     -2.9248348      0.080451843    10209.32       0            
     40900   314.57864      493.43585     -0.30655704    -25.674172      24.573516      612.7301      -113.72842     -4.1586156      0.079567976    10322.728      0            
     41000   297.34809      493.96459     -1.6605104     -25.288922      32.512293      609.70666     -115.72968     -5.5752491      0.077786815    10559.098      0            
     41100   259.96843      494.63035     -4.6648756     -27.275103      34.54404       601.0099      -103.63412     -5.3494956      0.076940867    10675.193      0            
     41200   258.58936      495.68184      1.934906      -26.278994      36.745107      597.08487     -109.42707     -4.3769823      0.076101837    10792.888      0            
     41300   282.53178      503.14373     -1.266354      -25.170736      28.311655      611.7548      -105.8996      -4.5860363      0.07525795     10913.912      0            
     41400   278.40961      121770.14      2528.8424     -32.345274      118826.77      567.94558     -118.57338     -2.4952209      0.075106571    10935.909      1            
     41500   757.00543      422.03599     -3.2654274     -34.908254      35.723476      544.34898     -119.05164     -0.81115166     0.15298258     5368.9683      1            
     41600   397.42686      407.49286     -2.2489469     -26.779376      34.401852      493.61737     -91.272245     -0.22579559     0.15568588     5275.7423      1            
     41700   334.05114      371.18921      7.8243625     -38.835825      26.04473       516.26218     -137.03976     -3.066481       0.15603831     5263.8266      1            
     41800   324.03856      387.04595     -4.9962317     -26.708846      26.586516      503.90085     -111.4002      -0.33613983     0.15499819     5299.1497      1            
     41900   265.51894      375.59222      12.47751      -34.504141      20.337736      493.7175      -113.11752     -3.3188685      0.15536992     5286.4714      1            
     42000   304.11826      368.32285     -3.5213933     -33.397445      14.633674      513.74537     -122.51011     -0.6272505      0.15430625     5322.9123      1            
     42100   317.65292      363.87144     -1.8946076     -30.698401      17.22119       492.7437      -111.67865     -1.8217942      0.15446927     5317.2945      1            
     42200   276.3357       368.49729      1.9417128     -32.575124      25.000082      490.23196     -114.56608     -1.5352685      0.15452359     5315.4255      1            
     42300   283.75111      382.59232      3.4718441     -28.608912      18.85324       502.99498     -111.68438     -2.43445        0.15360985     5347.044       1            
     42400   277.96626      365.42626      8.6327943     -35.035732      18.876053      480.1617      -105.0598      -2.1487594      0.15418381     5327.139       1            
     42500   356.90888      374.13847      4.9619456     -34.977753      26.826063      501.3393      -122.1186      -1.8924902      0.15354608     5349.2645      1            
     42600   298.30701      364.21253     -3.7625307     -33.095481      26.03701       500.84244     -123.93161     -1.8772938      0.15365253     5345.5585      1            
     42700   318.91268      372.36069      9.2861943     -31.645233      25.342183      486.10958     -115.0872      -1.6448411      0.15394294     5335.4745      1            
     42800   299.16201      376.39121      0.1872824     -31.292845      24.304144      513.89223     -128.29207     -2.4075277      0.1520423      5402.1717      1            
     42900   279.90835      384.51866      8.8401865     -33.253711      22.902113      502.49963     -114.9879      -1.4816492      0.1532527      5359.5049      1            
     43000   276.40879      373.45211      5.1852473     -30.867537      26.13223       486.52436     -112.93687     -0.58532449     0.15099572     5439.6152      1            
     43100   280.00116      361.5772       8.8548426     -36.344878      22.012567      485.38816     -115.72555     -2.6079369      0.1522993      5393.0557      1            
     43200   315.49505      366.05603      0.18882107    -24.983645      14.538979      489.89936     -112.32906     -1.2584262      0.15061518     5453.3586      1            
     43300   296.18942      363.8247       4.408609      -31.062217      20.756545      488.12038     -116.49615     -1.9024651      0.15221477     5396.0505      1            
     43400   277.88105      365.58199     -0.83918293    -37.593456      22.864701      513.80733     -130.62946     -2.0279443      0.15037656     5462.0122      1            
     43500   335.57304      370.41213      4.1878511     -35.925431      24.705985      505.15791     -125.54269     -2.1715021      0.15124913     5430.5014      1            
     43600   394.93512      356.49588      4.6419208     -38.897249      21.942339      488.73528     -117.50656     -2.4198534      0.14977745     5483.8604      1            
     43700   307.61192      367.51371     -0.30319684    -30.368176      20.111149      509.08736     -128.36285     -2.6505801      0.14866558     5524.8741      1            
     43800   258.63315      368.15805      5.1752432     -29.923413      19.386425      489.31142     -115.84079      0.049167776    0.14941083     5497.3163      1            
     43900   296.27704      362.59364     -1.8300865     -29.481859      15.5626        513.78586     -132.10652     -3.3363487      0.1472553      5577.7864      1            
     44000   286.63793      374.9412       2.638527      -31.199137      22.716019      499.43341     -117.16413     -1.483483       0.14789063     5553.8246      1            
     44100   356.47857      369.58591      0.50191166    -32.253352      23.778428      504.7512      -125.87124     -1.321045       0.1477021      5560.9134      1            
     44200   294.2365       371.45156     -2.0580088     -29.732068      25.229246      485.46936     -106.90691     -0.55006015     0.14698565     5588.0189      1            
     44300   269.68168      366.90324      1.4703709     -29.241287      23.336609      485.28978     -111.46427     -2.4879679      0.14760855     5564.4379      1            
     44400   317.04685      351.08846      0.15204054    -34.72179       20.368484      481.36512     -114.28542     -1.789975       0.14685288     5593.071       1            
     44500   263.18141      367.22752      5.5005116     -29.496386      16.133738      490.73588     -114.81991     -0.82631579     0.14723136     5578.6933      1            
     44600   340.69315      369.50417      4.9311335     -27.262637      21.036706      492.90095     -119.62453     -2.4774566      0.14634728     5612.3941      1            
     44700   294.42477      386.74479      7.1579663     -24.840448      23.364441      508.36536     -124.71411     -2.588416       0.14494708     5666.6101      1            
     44800   312.06234      366.58754      4.0740115     -31.951698      25.22187       502.73239     -131.01985     -2.4691889      0.14424722     5694.1036      1            
     44900   281.07283      366.70348      0.61807079    -26.274125      24.046272      474.39675     -105.95407     -0.12941703     0.14273302     5754.51        1            
     45000   323.16165      358.10096      3.5955839     -29.644347      18.059656      470.86867     -103.57863     -1.1999724      0.14119625     5817.1418      1            
     45100   288.99947      369.79555      6.9818144     -33.284688      19.319279      501.68657     -121.58266     -3.3247682      0.14066452     5839.1313      1            
     45200   373.70256      366.3693       5.2842617     -32.137977      22.212837      493.58635     -118.94938     -3.6268007      0.14030586     5854.0577      1            
     45300   401.65889      373.94786     -4.0925004     -31.296029      29.525237      488.57889     -105.48443     -3.2833141      0.13946298     5889.4383      1            
     45400   284.78626      394.20022     -2.6854792     -20.39885       29.817118      505.8671      -117.57854     -0.821126       0.13854237     5928.5733      1            
     45500   322.60388      371.43088      2.4361994     -29.916153      26.323897      498.72983     -125.5942      -0.54868753     0.13850985     5929.9653      1            
     45600   305.5052       368.70217      0.54439408    -28.43768       33.320256      483.24935     -116.72043     -3.2537218      0.13822982     5941.9786      1            
     45700   246.57577      374.67487     -0.071670209   -28.988821      27.798889      492.64902     -113.99815     -2.7143933      0.13758948     5969.6323      1            
     45800   256.95079      368.2565       2.4708459     -32.944376      21.202255      486.85699     -106.4169      -2.9123119      0.13781269     5959.9636      1            
     45900   334.72469      370.27064      0.82550858    -32.16008       24.830378      493.37111     -115.20889     -1.3873968      0.13672797     6007.2465      1            
     46000   321.09556      374.69599     -3.6750258     -30.558686      37.65376       488.48785     -115.10861     -2.1032949      0.13625842     6027.9476      1            
     46100   300.21009      370.39218     -0.80508566    -32.069287      32.399647      488.89708     -115.27546     -2.7547223      0.13586704     6045.3117      1            
     46200   298.53667      363.48211     -2.3344337     -36.520861      19.150467      510.44713     -124.22653     -3.0336646      0.13599639     6039.5618      1            
     46300   289.87222      363.74302      4.3000171     -33.293088      27.527798      489.94967     -122.07249     -2.6688902      0.13585099     6046.0261      1            
     46400   314.69778      359.90604      1.1249043     -34.9698        22.011636      486.7132      -113.64451     -1.3293874      0.13471821     6096.8641      1            
     46500   327.22627      372.36844     -3.161607      -31.495033      23.714896      497.99504     -112.96054     -1.7243058      0.13299474     6175.873       1            
     46600   337.60781      380.57037      0.61890968    -32.922969      28.441098      504.81707     -118.50615     -1.877583       0.13148632     6246.723       1            
     46700   312.11793      374.12261      2.4144014     -29.526026      23.069572      494.84756     -115.72304     -0.95985596     0.13047613     6295.087       1            
     46800   289.62286      370.18397     -3.0278548     -30.794274      22.309445      486.6283      -105.38329      0.45163956     0.13122957     6258.9447      1            
     46900   272.68021      372.68267     -1.0902859     -28.988937      27.354882      492.19776     -115.82817     -0.96257724     0.13164989     6238.9615      1            
     47000   263.89405      373.17043      2.785756      -29.221913      28.177956      494.34447     -121.24182     -1.6740246      0.13052044     6292.9499      1            
     47100   295.04453      375.87611      2.2848945     -30.098093      26.653083      505.64647     -124.71111     -3.8991384      0.12932783     6350.9811      1            
     47200   359.91107      369.79084     -1.5630085     -30.180787      26.398542      492.7998      -116.53704     -1.1266725      0.12900084     6367.0796      1            
     47300   317.82263      373.05964      0.6649336     -27.962552      32.94115       472.04573     -103.57243     -1.0572004      0.12839288     6397.2285      1            
     47400   322.37932      358.44517     -4.4308956     -28.689793      28.491701      480.12291     -115.74225     -1.3064991      0.12805628     6414.0438      1            
     47500   263.05575      371.32512      0.30750934    -25.956364      27.038956      492.07109     -119.20219     -2.9338826      0.12722888     6455.7561      1            
     47600   287.11717      372.43387     -5.1108221     -26.133862      24.926235      495.00237     -113.88702     -2.3630311      0.1261136      6512.8472      1            
     47700   277.07006      384.2615       2.6849201     -28.636184      29.748808      487.88169     -105.67723     -1.7404962      0.12470535     6586.3942      1            
     47800   306.43976      372.53245     -2.5207191     -32.988655      31.742462      487.69927     -109.29402     -2.105882       0.12247886     6706.1253      1            
     47900   262.18847      365.36219      1.7989702     -34.261617      23.736493      502.53612     -124.78161     -3.6661581      0.12185183     6740.6344      1            
     48000   279.48724      355.27148      0.53747628    -33.679288      20.867634      480.5535      -111.78636     -1.2214787      0.12029475     6827.884       1            
     48100   274.6758       365.09649      2.9198476     -32.734057      25.465492      479.5164      -107.99231     -2.078879       0.1200627      6841.0805      1            
     48200   307.52589      366.59579     -0.14703087    -31.945286      35.986286      473.14421     -109.52965     -0.91273845     0.11834347     6940.4643      1            
     48300   332.29005      366.86433      2.5383099     -31.291189      24.583464      504.24088     -129.6637      -3.5434283      0.11822574     6947.3753      1            
     48400   325.86566      364.55457      3.7469348     -32.135231      28.336695      482.73461     -116.91265     -1.2157875      0.11794668     6963.8129      1            
     48500   241.76067      366.71653     -3.1051862     -30.227049      29.362015      489.85908     -119.19259      0.020255501    0.11784062     6970.0804      1            
     48600   263.91135      359.48848     -4.3437863     -31.829816      26.125448      489.37382     -119.0069      -0.83028502     0.11740401     6996.0011      1            
     48700   256.51973      369.72008     -0.14460905    -32.724049      25.845982      512.26514     -134.09904     -1.4233392      0.11691719     7025.1313      1            
     48800   292.78987      371.7654       2.6834209     -33.122161      21.605474      515.18935     -132.22414     -2.3665424      0.11653839     7047.9658      1            
     48900   339.88473      365.39213      1.1570006     -32.975162      24.215672      493.88106     -120.5258      -0.36064327     0.11557038     7106.9995      1            
     49000   335.44192      363.88665     -2.0151915     -31.671103      24.620721      494.73698     -121.04441     -0.7403437      0.11366494     7226.1387      1            
     49100   260.79271      360.57139      5.1145792     -33.196697      21.355903      507.01919     -135.80692     -3.9146572      0.1119629      7335.9892      1            
     49200   250.3996       358.44837     -0.83721765    -32.366679      25.33748       489.19952     -120.7556      -2.1291321      0.11042892     7437.8938      1            
     49300   293.25076      359.0447       2.378295      -32.923271      21.61043       483.94406     -114.65098     -1.313828       0.10944252     7504.9314      1            
     49400   285.79768      369.73012      1.0653233     -30.511254      23.948412      489.30119     -113.14252     -0.93102604     0.10853128     7567.9438      1            
     49500   283.57591      370.20032     -2.1696458     -35.770981      26.509145      496.52714     -113.34846     -1.5468745      0.10693409     7680.9801      1            
     49600   282.29774      375.52006      7.9725475     -34.535984      27.193935      494.74541     -117.12294     -2.7329141      0.10646611     7714.7425      1            
     49700   309.40303      364.63842     -1.086914      -34.751024      28.982341      489.46685     -115.69037     -2.2824642      0.1056423      7774.9027      1            
     49800   300.23254      364.43366     -1.4952813     -31.579584      24.479655      487.61051     -112.4486      -2.133037       0.1050455      7819.0747      1            
     49900   262.90839      366.75748     -3.8833436     -31.801757      27.815699      489.09867     -112.20559     -2.2662044      0.10435054     7871.1483      1            
     50000   235.8455       377.4723       1.0091845     -31.549491      34.914158      490.58176     -113.47814     -4.0051727      0.10383867     7909.9494      1            
     50100   329.61388      370.79131     -1.1226762     -29.15247       26.295843      503.93317     -126.22106     -2.9414881      0.10287592     7983.9733      1            
     50200   325.56044      376.15383     -1.0398998     -24.126309      35.86954       493.88753     -126.09258     -2.3444469      0.1020314      8050.0573      1            
     50300   260.00126      373.37835     -6.7569993     -30.087974      30.759646      483.0258      -103.47183     -0.090294244    0.099878088    8223.6117      1            
     50400   278.67074      365.20228     -1.5371979     -29.117966      18.706567      495.62146     -115.18733     -3.2832502      0.098828567    8310.9432      1            
     50500   311.20159      359.14117     -0.22797607    -32.605458      24.965555      494.04245     -124.61969     -2.4137061      0.096970112    8470.2244      1            
     50600   317.85514      364.70562      1.782518      -32.438971      21.800025      489.06598     -114.04839     -1.455537       0.09606394     8550.1241      1            
     50700   308.95871      372.47291      1.1659326     -30.382642      34.134025      487.72449     -118.74759     -1.421307       0.09387103     8749.8626      1            
     50800   283.61733      380.01793     -0.97186556    -30.62906       31.738437      500.19983     -117.62555     -2.6938666      0.091807801    8946.5013      1            
     50900   300.40472      369.35803      0.25712331    -32.878449      27.492894      491.48144     -114.93029     -2.0646812      0.091251005    9001.0912      1            
     51000   242.57572      373.26963      0.99337352    -27.41617       28.364749      492.93935     -120.15887     -1.452796       0.090367836    9089.0592      1            
     51030   258.90429      368.79933      0.810945      -29.288766      24.68339       489.69195     -114.97728     -2.1209198      0.090056282    9120.5033      1            
Loop time of 3.87785 on 6 procs for 20000 steps with 74 atoms

Performance: 445.608 ns/day, 0.054 hours/ns, 5157.496 timesteps/s, 381.655 katom-step/s
98.7% CPU use with 6 MPI tasks x no OpenMP threads

MPI task timing breakdown:
Section |  min time  |  avg time  |  max time  |%varavg| %total
---------------------------------------------------------------
Pair    | 0.032503   | 0.12534    | 0.19252    |  15.5 |  3.23
Bond    | 0.079306   | 0.59834    | 1.117      |  50.1 | 15.43
Neigh   | 0.020534   | 0.021815   | 0.023095   |   0.8 |  0.56
Comm    | 1.4203     | 1.7274     | 2.1687     |  17.8 | 44.55
Output  | 0.014374   | 0.016377   | 0.026222   |   3.4 |  0.42
Modify  | 1.0594     | 1.3391     | 1.8866     |  26.6 | 34.53
Other   |            | 0.04946    |            |       |  1.28

Nlocal:        12.3333 ave          41 max           0 min
Histogram: 3 1 0 0 0 0 1 0 0 1
Nghost:        360.667 ave         544 max         205 min
Histogram: 1 1 0 0 2 0 1 0 0 1
Neighs:        376.333 ave        1798 max           0 min
Histogram: 3 2 0 0 0 0 0 0 0 1

Total # of neighbors = 2258
Ave neighs/atom = 30.513514
Ave special neighs/atom = 14.432432
Neighbor list builds = 308
Dangerous builds = 0
Total wall time: 0:00:08
