LAMMPS (22 Dec 2022)
Reading data file ...
  orthogonal box = (4.9401007 4.9401007 4.9401007) to (42.50664 42.50664 42.50664)
  2 by 3 by 4 MPI processor grid
  reading atoms ...
  5009 atoms
  reading velocities ...
  5009 velocities
  scanning bonds ...
  4 = max bonds/atom
  scanning angles ...
  6 = max angles/atom
  scanning dihedrals ...
  36 = max dihedrals/atom
  scanning impropers ...
  4 = max impropers/atom
  reading bonds ...
  5137 bonds
  reading angles ...
  10125 angles
  reading dihedrals ...
  14559 dihedrals
  reading impropers ...
  6480 impropers
Finding 1-2 1-3 1-4 neighbors ...
  special bond factors lj:    0        0        1       
  special bond factors coul:  0        0        1       
     4 = max # of 1-2 neighbors
    12 = max # of 1-3 neighbors
    16 = max # of special neighbors
  special bonds CPU = 0.002 seconds
  read_data CPU = 0.377 seconds
PPPM initialization ...
  using 12-bit tables for long-range coulomb (../kspace.cpp:342)
  G vector (1/distance) = 0.11742596
  grid = 4 4 4
  stencil order = 5
  estimated absolute RMS force accuracy = 0.23216569
  estimated relative force accuracy = 0.00069916007
  using double precision KISS FFT
  3d grid and FFT values/proc = 294 4
Generated 15 of 15 mixed pair_coeff terms from sixthpower/sixthpower mixing rule
Neighbor list info ...
  update: every = 1 steps, delay = 0 steps, check = yes
  max neighbors/atom: 2000, page size: 100000
  master list distance cutoff = 12
  ghost atom cutoff = 12
  binsize = 6, bins = 7 7 7
  1 neighbor lists, perpetual/occasional/extra = 1 0 0
  (1) pair lj/class2/coul/long, perpetual
      attributes: half, newton on
      pair build: half/bin/newton
      stencil: half/bin/3d
      bin: standard
Setting up cg style minimization ...
  Unit style    : real
  Current step  : 0
WARNING: Inconsistent image flags (../domain.cpp:815)
  PPPM/cg optimization cutoff: 1e-05
  Total charged atoms: 94.6%
  Min/max charged atoms/proc: 93.5% 95.7%
Per MPI rank memory allocation (min/avg/max) = 23.37 | 23.37 | 23.38 Mbytes
   Step          Temp          E_pair         E_mol          TotEng         Press     
         0   600.52612      2057.6464      8020.2623      19042.501      2808.2051    
        80   600.52612      1200.3902      58.84197       10223.824      4827.9221    
Loop time of 0.916184 on 24 procs for 80 steps with 5009 atoms

99.1% CPU use with 24 MPI tasks x no OpenMP threads

Minimization stats:
  Stopping criterion = linesearch alpha is zero
  Energy initial, next-to-last, final = 
      10077.9087228035   1259.23215867487   1259.23215867487
  Force two-norm initial, final = 3330.8887 53.166728
  Force max component initial, final = 187.34029 4.2485717
  Final line search alpha, max atom move = 2.8690695e-12 1.2189447e-11
  Iterations, force evaluations = 80 218

MPI task timing breakdown:
Section |  min time  |  avg time  |  max time  |%varavg| %total
---------------------------------------------------------------
Pair    | 0.456      | 0.56316    | 0.67285    |   8.1 | 61.47
Bond    | 0.1102     | 0.14049    | 0.16912    |   3.5 | 15.33
Kspace  | 0.046654   | 0.17065    | 0.30725    |  16.7 | 18.63
Neigh   | 0.0055932  | 0.0056077  | 0.0056254  |   0.0 |  0.61
Comm    | 0.029487   | 0.030392   | 0.031642   |   0.4 |  3.32
Output  | 0          | 0          | 0          |   0.0 |  0.00
Modify  | 0          | 0          | 0          |   0.0 |  0.00
Other   |            | 0.005877   |            |       |  0.64

Nlocal:        208.708 ave         227 max         183 min
Histogram: 1 2 3 2 0 3 3 3 2 5
Nghost:        4709.75 ave        4782 max        4658 min
Histogram: 3 3 4 1 3 4 3 0 1 2
Neighs:          71272 ave       85534 max       57169 min
Histogram: 2 2 0 4 6 2 3 0 3 2

Total # of neighbors = 1710528
Ave neighs/atom = 341.49092
Ave special neighs/atom = 6.0187662
Neighbor list builds = 2
Dangerous builds = 0
PPPM initialization ...
  using 12-bit tables for long-range coulomb (../kspace.cpp:342)
  G vector (1/distance) = 0.11742596
  grid = 4 4 4
  stencil order = 5
  estimated absolute RMS force accuracy = 0.23216569
  estimated relative force accuracy = 0.00069916007
  using double precision KISS FFT
  3d grid and FFT values/proc = 294 4
Generated 15 of 15 mixed pair_coeff terms from sixthpower/sixthpower mixing rule
Setting up Verlet run ...
  Unit style    : real
  Current step  : 80
  Time step     : 0.25
WARNING: Inconsistent image flags (../domain.cpp:815)
Per MPI rank memory allocation (min/avg/max) = 22.24 | 22.25 | 22.26 Mbytes
   Step          Temp          PotEng         E_vdwl         E_coul         E_bond        E_angle        E_dihed        E_impro        Density         Volume    
        80   600.52612      1259.2322     -237.38249      2546.9415      273.74121      4199.5374     -4389.1918     -25.244879      0.90662584     53015.585    
     20000   605.6367       10444.717      562.49893      2559.1345      3747.9322      8354.3065     -3614.1805     -54.226621      0.87763914     54766.586    
     40000   604.43342      10317.157      632.42391      2556.2828      3715.6029      8213.017      -3637.8518     -51.054283      0.87725069     54790.837    
     60000   592.70449      10081.164      565.82116      2569.8329      3725.6107      8066.9072     -3687.8868     -49.686847      0.89353744     53792.149    
     80000   599.97821      10350.845      485.64411      2570.8608      3770.4469      8301.3385     -3612.6403     -54.416753      0.89647358     53615.969    
    100000   598.41232      10171.832      623.21787      2547.8531      3702.0306      8171.04       -3711.459      -50.499838      0.89685185     53593.355    
    120000   593.48304      10308.509      598.92756      2561.0027      3714.378       8166.0023     -3571.1958     -50.028522      0.88684271     54198.224    
    140000   604.08013      10157.505      589.63453      2561.9635      3643.1504      8290.1451     -3767.2904     -50.570968      0.89221318     53871.99     
    160000   608.53587      10304.388      526.54462      2556.3815      3780.45        8156.8734     -3557.1996     -48.261768      0.89042201     53980.359    
    180000   607.4849       10023.702      379.77236      2582.4065      3756.2778      8002.0233     -3537.8773     -49.978771      0.90457686     53135.672    
    200000   599.91699      10235.691      530.4609       2570.5904      3771.7982      8011.958      -3496.9465     -44.386271      0.87819156     54732.136    
    220000   608.81336      10006.3        478.07766      2573.7993      3685.6632      8007.8692     -3578.4115     -50.59433       0.88406616     54368.442    
    240000   600.9724       10294.367      568.08582      2585.4148      3774.2123      8172.2411     -3647.34       -49.815731      0.87259323     55083.282    
    260000   607.6919       10151.223      511.13358      2554.3325      3702.1434      8162.1666     -3620.6169     -48.573645      0.88420199     54360.09     
    280000   599.51676      10151.272      614.73025      2561.9241      3724.45        8033.1241     -3622.085      -50.179001      0.88146447     54528.913    
    300000   596.51352      10334.146      551.10042      2577.1545      3829.2995      8132.616      -3591.3954     -55.526161      0.87187952     55128.373    
    320000   608.29         10114.809      550.13452      2574.5942      3673.0313      8123.4157     -3649.1043     -48.427723      0.89400165     53764.218    
    340000   595.51315      10012.03       528.01941      2560.177       3705.5551      8154.6158     -3778.5901     -47.848638      0.89225408     53869.52     
    360000   598.50625      10128.023      594.65683      2581.162       3702.933       8097.8908     -3692.8379     -46.295352      0.88444299     54345.278    
    380000   596.93935      10375.571      518.93723      2572.065       3866.4075      8107.7045     -3528.7639     -50.361185      0.86400023     55631.119    
    400000   603.17182      10256.349      591.80727      2561.8816      3826.1565      8163.071      -3722.0833     -54.651273      0.88644869     54222.314    
    420000   597.17855      10233.469      561.92826      2569.5355      3753.7932      8178.525      -3668.6508     -51.091675      0.89038709     53982.476    
    440000   609.92884      10215.874      490.03307      2559.593       3716.8678      8210.7716     -3602.1097     -49.63882       0.89124924     53930.256    
    460000   605.10527      10178.201      708.25001      2569.2587      3627.9929      8132.2011     -3704.0415     -45.527348      0.88662382     54211.604    
    480000   600.28807      10168.978      613.14335      2553.5535      3794.1445      7965.8109     -3600.2366     -47.001288      0.87173242     55137.676    
    500000   606.77978      10283.597      625.71182      2570.631       3771.549       8064.3779     -3586.8585     -52.560783      0.87478845     54945.055    
    520000   601.48677      10246.068      600.06129      2586.6298      3698.7755      8222.9285     -3699.2413     -54.469466      0.88547907     54281.689    
    540000   605.24888      10364.08       606.55428      2591.4381      3782.3489      8307.1973     -3756.9198     -56.782681      0.88227624     54478.742    
    560000   610.83169      10288.001      603.75264      2568.6194      3628.7046      8250.5966     -3598.3146     -54.443189      0.89126772     53929.138    
    580000   597.46421      10220.191      619.50719      2580.7735      3698.8699      8036.0789     -3550.4829     -55.045947      0.87995041     54622.737    
    600000   595.21443      10472.208      497.52348      2569.9331      3844.4391      8284.639      -3562.2876     -51.582254      0.87870071     54700.422    
    620000   601.3128       10388.329      566.22349      2575.3812      3722.5416      8270.2372     -3580.8334     -55.892612      0.879326       54661.524    
    640000   599.75269      10318.401      599.64124      2564.2355      3799.5247      8081.5506     -3566.298      -50.599728      0.88517186     54300.528    
    660000   599.20016      10225.037      526.29165      2577.7686      3794.4884      8119.1549     -3629.4558     -53.222181      0.89455687     53730.848    
    680000   597.05926      10247.641      504.6175       2558.8525      3790.2195      8193.3856     -3642.5279     -47.976649      0.89349315     53794.816    
    700000   614.34385      10110.062      529.94267      2560.511       3707.2785      8106.6222     -3634.6176     -51.539303      0.90015965     53396.416    
    720000   595.16708      10385.554      590.26658      2567.2785      3846.4771      8120.9894     -3577.4641     -52.987154      0.88693306     54192.703    
    740000   608.7726       10287.906      653.24216      2571.9195      3708.6555      8140.2012     -3624.9755     -50.616007      0.88083776     54567.71     
    760000   605.10828      10318.474      638.03401      2551.6423      3691.2383      8126.1034     -3527.0864     -52.561319      0.88027505     54602.592    
    780000   605.88287      10183.433      518.91592      2570.2328      3736.7255      8133.0005     -3612.4318     -54.04662       0.89628735     53627.109    
    800000   596.03382      10219.365      547.36708      2554.2925      3770.1701      8074.5063     -3564.3344     -54.367162      0.88603435     54247.671    
    820000   600.38768      10229.476      563.95602      2580.3813      3675.9898      8240.8872     -3667.2104     -54.694524      0.89184176     53894.425    
    840000   607.71735      10248.807      478.01063      2575.2654      3846.5409      8150.878      -3638.8829     -52.789227      0.89276745     53838.544    
    860000   612.44064      10373.791      562.89438      2572.7461      3737.748       8144.4126     -3480.0737     -54.646949      0.89928377     53448.423    
    880000   593.47921      10211.727      559.37036      2570.8538      3691.15        8101.4459     -3550.1322     -51.776031      0.89033619     53985.562    
    900000   598.22838      10202.751      494.10444      2586.4548      3766.3026      8096.5304     -3584.5619     -45.943106      0.91217679     52692.965    
    920000   614.86919      10129.066      523.31742      2577.0879      3713.4604      8124.464      -3653.923      -45.934644      0.89511576     53697.3      
    940000   595.67558      10255.247      569.3187       2578.8582      3830.1781      8069.788      -3631.7713     -50.932879      0.90012512     53398.465    
    960000   611.82889      10167.814      462.30534      2589.322       3714.1248      8088.5751     -3533.4058     -44.506012      0.89795063     53527.775    
    980000   600.89571      10176.644      559.46105      2569.9148      3725.8203      8172.9358     -3690.0916     -51.95334       0.89924472     53450.744    
   1000000   601.79042      10108.868      543.59766      2587.0308      3649.1512      8173.3998     -3681.9305     -53.990218      0.90991392     52824.007    
   1020000   604.17459      10293.353      551.30704      2569.8263      3724.9832      8215.1523     -3609.405      -49.216284      0.89391761     53769.272    
   1040000   598.86192      10154.955      554.7723       2583.3318      3641.5712      8129.5084     -3592.7922     -50.83622       0.89401778     53763.248    
   1060000   594.07922      10316.091      672.67271      2556.7261      3700.8263      8122.0206     -3576.9905     -49.473066      0.88812736     54119.828    
   1080000   610.15514      10014.416      587.96933      2564.386       3630.6014      8048.6414     -3655.297      -53.219402      0.88650966     54218.585    
   1100000   601.18188      10000.288      522.59288      2565.04        3694.2928      8056.1122     -3676.2042     -51.490303      0.89720253     53572.408    
   1120000   612.56177      10067.605      473.3179       2564.7658      3698.6782      8155.942      -3660.5237     -55.801628      0.90131258     53328.114    
   1140000   596.17125      9958.0063      443.90401      2550.1871      3718.2726      8011.8623     -3604.1838     -51.806107      0.90977171     52832.265    
   1160000   603.92765      10127.393      568.18562      2570.7917      3704.8846      8082.8548     -3642.4069     -49.251192      0.89655955     53610.828    
   1180000   601.66017      9976.815       437.52495      2562.5712      3736.3463      8082.7269     -3681.6596     -51.460895      0.90423885     53155.535    
   1200000   604.89482      10281.774      564.02841      2567.6866      3811.2024      8094.8793     -3599.9692     -46.98073       0.9014464      53320.197    
   1200080   600.33896      10352.729      609.36342      2565.0867      3853.9652      8024.3944     -3545.445      -45.186473      0.90762377     52957.295    
Loop time of 4073.59 on 24 procs for 1200000 steps with 5009 atoms

Performance: 6.363 ns/day, 3.772 hours/ns, 294.581 timesteps/s, 1.476 Matom-step/s
99.5% CPU use with 24 MPI tasks x no OpenMP threads

MPI task timing breakdown:
Section |  min time  |  avg time  |  max time  |%varavg| %total
---------------------------------------------------------------
Pair    | 1734.8     | 2100       | 2574       | 439.3 | 51.55
Bond    | 577.59     | 678.89     | 753.91     | 164.2 | 16.67
Kspace  | 523.24     | 1062.8     | 1512.5     | 703.9 | 26.09
Neigh   | 53.906     | 53.932     | 53.961     |   0.2 |  1.32
Comm    | 127.07     | 130.22     | 132.74     |  12.6 |  3.20
Output  | 0.0034894  | 0.004031   | 0.015778   |   3.9 |  0.00
Modify  | 32.373     | 34.68      | 36.402     |  18.7 |  0.85
Other   |            | 13.06      |            |       |  0.32

Nlocal:        208.708 ave         229 max         177 min
Histogram: 1 1 1 0 5 4 2 4 3 3
Nghost:        4713.46 ave        4776 max        4631 min
Histogram: 1 0 4 3 1 5 0 3 5 2
Neighs:          71058 ave       86021 max       55704 min
Histogram: 2 2 0 3 6 2 4 2 1 2

Total # of neighbors = 1705392
Ave neighs/atom = 340.46556
Ave special neighs/atom = 6.0187662
Neighbor list builds = 17534
Dangerous builds = 0
PPPM initialization ...
  using 12-bit tables for long-range coulomb (../kspace.cpp:342)
  G vector (1/distance) = 0.11745706
  grid = 4 4 4
  stencil order = 5
  estimated absolute RMS force accuracy = 0.23212377
  estimated relative force accuracy = 0.00069903385
  using double precision KISS FFT
  3d grid and FFT values/proc = 294 4
Generated 15 of 15 mixed pair_coeff terms from sixthpower/sixthpower mixing rule
Setting up Verlet run ...
  Unit style    : real
  Current step  : 1200080
  Time step     : 0.25
WARNING: Inconsistent image flags (../domain.cpp:815)
Per MPI rank memory allocation (min/avg/max) = 22.24 | 22.27 | 22.63 Mbytes
   Step          Temp          PotEng         E_vdwl         E_coul         E_bond        E_angle        E_dihed        E_impro        Density         Volume    
   1200080   600.33896      10352.745      609.36342      2565.3963      3853.9652      8024.3944     -3545.445      -45.186473      0.90762377     52957.295    
   1220000   579.49219      10237.727      518.2409       2573.5539      3704.9953      8104.3272     -3499.6366     -53.590182      0.89228766     53867.493    
   1240000   575.23842      9835.5545      472.61224      2558.0493      3605.0373      8100.0872     -3732.4212     -57.496317      0.91084177     52770.197    
   1260000   569.2137       9811.8869      538.2461       2580.6541      3551.671       8008.4159     -3706.526      -50.371455      0.90629533     53034.919    
   1280000   579.32072      9978.9564      548.1574       2582.7636      3639.4428      7984.1662     -3614.726      -50.922939      0.8945473      53731.423    
   1300000   576.69813      9831.0546      483.2988       2567.3801      3604.1077      7950.7085     -3607.1147     -56.264105      0.91771822     52374.791    
   1320000   571.03732      9890.316       439.4228       2559.5901      3594.1508      8043.6689     -3589.4279     -46.751665      0.91054012     52787.679    
   1340000   575.52448      9840.5828      456.90358      2584.0117      3563.4534      8019.557      -3621.1567     -51.911076      0.90664892     53014.236    
   1360000   571.43703      10086.233      569.47414      2583.72        3768.9158      8012.9597     -3689.5321     -49.24675       0.89290942     53829.984    
   1380000   581.37303      9575.0424      484.24954      2537.0504      3566.3101      7875.8716     -3727.7296     -50.207274      0.9024767      53259.325    
   1400000   575.80972      9812.1415      429.61503      2563.5553      3611.3606      7997.3489     -3626.267      -54.812704      0.90519114     53099.613    
   1420000   572.55802      10121.948      601.45767      2579.3489      3662.4596      8138.4668     -3703.8972     -45.228128      0.89597147     53646.015    
   1440000   583.61583      10100.25       603.78663      2566.7806      3740.6743      7920.1453     -3572.3754     -48.363068      0.8928377      53834.308    
   1460000   569.39167      9725.0351      476.44977      2562.1656      3510.8043      7962.4962     -3624.0321     -51.77946       0.90509123     53105.475    
   1480000   579.57981      9948.7169      521.45845      2569.174       3687.7427      8122.5991     -3786.3767     -55.343715      0.89765278     53545.536    
   1500000   565.159        9902.1623      458.73137      2564.1941      3641.6585      8077.1359     -3676.9064     -52.677627      0.88700516     54188.298    
   1520000   589.49928      9979.361       532.12401      2565.8187      3586.7674      8107.7817     -3653.0457     -48.909796      0.88564846     54271.307    
   1540000   578.40836      10038.332      708.74851      2589.686       3547.6463      7922.2403     -3568.3798     -51.347991      0.86810252     55368.229    
   1560000   592.86397      9870.4851      523.86662      2549.7451      3596.5268      7983.8478     -3623.4647     -48.648003      0.89716217     53574.817    
   1580000   590.85711      9984.7319      458.12257      2554.2084      3625.3831      8132.7057     -3627.6231     -47.288096      0.90060204     53370.187    
   1600000   581.60504      9599.7474      551.83792      2536.6174      3516.1254      7900.2752     -3743.1448     -51.55287       0.90998433     52819.92     
   1620000   582.69539      9707.6254      414.56881      2537.4628      3617.259       7899.2321     -3601.0396     -48.818977      0.89509093     53698.789    
   1640000   584.44157      9969.7764      563.90593      2550.1182      3627.0026      7930.2102     -3544.1857     -46.559884      0.89813267     53516.926    
   1660000   575.37683      9848.3619      374.10526      2537.9481      3742.3528      7922.3527     -3567.284      -50.545         0.89688144     53591.587    
   1680000   583.02464      9824.8229      484.81049      2565.2249      3690.2187      7949.1685     -3705.998      -50.14121       0.89312862     53816.772    
   1700000   579.5568       9860.7157      574.98465      2591.192       3605.7336      7964.1547     -3716.6695     -49.318969      0.90348691     53199.774    
   1720000   577.75584      9903.9019      487.97446      2545.8587      3667.7234      7997.338      -3631.5533     -54.632144      0.90145258     53319.831    
   1740000   583.81472      9864.8038      499.49901      2555.1775      3614.4174      8000.8601     -3645.3413     -50.003651      0.90031387     53387.27     
   1760000   591.18647      9807.8097      520.59491      2547.9407      3566.9642      7961.8259     -3626.8529     -53.811474      0.9034484      53202.041    
   1780000   575.02826      10037.014      524.01381      2567.6278      3705.0711      8059.5266     -3660.4794     -48.55996       0.90017966     53395.23     
   1800000   588.89495      9961.9959      582.11547      2536.5005      3653.4519      7933.6091     -3587.8906     -46.751713      0.89734344     53563.995    
   1820000   589.93286      9842.4096      462.3803       2568.3033      3647.8961      7884.9649     -3562.6493     -48.441451      0.90034805     53385.243    
   1840000   580.94441      9979.1194      576.38901      2582.6248      3667.2386      7979.1996     -3661.0604     -55.98986       0.90304676     53225.704    
   1860000   585.22583      9900.399       494.40504      2557.3873      3616.0328      8043.7945     -3651.9477     -47.723895      0.90722609     52980.508    
   1880000   591.91538      9914.4301      459.72158      2542.4177      3752.1219      8020.448      -3697.2837     -52.296281      0.89973808     53421.435    
   1900000   592.27494      9945.3981      551.96915      2573.6717      3592.541       8051.7392     -3662.5952     -52.323644      0.91500815     52529.914    
   1920000   577.32636      9968.8849      534.92782      2553.7877      3669.5667      8006.6554     -3635.6545     -50.142178      0.89683847     53594.154    
   1940000   586.6637       10046.289      543.38769      2555.669       3627.8131      8107.8115     -3628.1161     -51.098875      0.8961226      53636.968    
   1960000   587.75967      9590.0808      464.95924      2533.1858      3418.5978      7958.3391     -3625.2009     -49.58344       0.90453709     53138.009    
   1980000   564.88704      9755.6278      453.28123      2553.6696      3644.0717      7913.7984     -3648.1326     -50.638081      0.89372624     53780.786    
   2000000   575.81621      9757.3914      384.43945      2542.3052      3760.9612      7908.313      -3679.4294     -49.187086      0.90034438     53385.46     
   2020000   581.94953      9878.3332      485.06513      2560.3219      3603.7409      7969.3809     -3577.043      -52.889519      0.89196538     53886.957    
   2040000   577.96092      9844.4014      536.7282       2551.5759      3640.2321      8099.455      -3825.8526     -47.456336      0.90580981     53063.346    
   2060000   578.91983      9967.2064      548.10061      2569.2535      3695.7776      8069.1427     -3757.6452     -47.888824      0.88985753     54014.601    
   2080000   570.7306       9781.9201      483.92513      2557.2304      3541.7586      7931.1381     -3573.0384     -47.844665      0.91671992     52431.826    
   2100000   583.6042       9940.2254      451.03604      2575.3033      3605.8807      8066.4397     -3597.5417     -50.30187       0.90655929     53019.477    
   2120000   597.00065      9849.5546      417.98188      2557.4038      3619.8945      8056.8385     -3647.0571     -45.163997      0.90559085     53076.176    
   2140000   578.12441      9849.3547      510.88086      2580.5181      3584.1365      7979.5004     -3641.3023     -53.816084      0.90991523     52823.931    
   2160000   593.04581      9912.2884      518.09565      2570.6202      3588.695       7980.1516     -3582.0668     -53.954428      0.91429768     52570.733    
   2180000   574.36541      9813.101       524.58141      2581.3024      3568.4695      7899.8331     -3601.8293     -49.149361      0.90642087     53027.574    
   2200000   576.26719      9749.0118      490.16549      2560.5333      3619.4261      7851.4923     -3611.5365     -50.477093      0.90447294     53141.777    
   2220000   579.34021      9716.6905      499.59769      2574.2032      3623.9891      7901.0795     -3725.3695     -47.568324      0.91304244     52643.007    
   2240000   585.84072      9660.3616      502.69092      2557.0433      3554.3293      7902.2593     -3696.5769     -48.66128       0.90113331     53338.722    
   2260000   582.59799      9948.8801      539.52852      2565.876       3673.3073      8010.2612     -3680.0394     -51.485181      0.89802255     53523.488    
   2280000   581.93822      9654.651       487.56406      2555.2958      3671.4828      7795.006      -3694.074      -49.938804      0.90380511     53181.044    
   2300000   588.32653      9770.1213      497.49922      2548.5611      3608.6629      8003.5617     -3729.3617     -49.803944      0.90258621     53252.863    
   2320000   590.05575      9875.1766      518.51151      2557.9147      3627.5197      7986.5031     -3654.3254     -49.97963       0.90367348     53188.791    
   2340000   583.79114      9965.8414      515.5473       2569.3915      3688.9854      8031.2718     -3675.8291     -53.299505      0.89591896     53649.16     
   2360000   581.99294      9782.8851      521.45656      2547.5353      3599.5654      7923.7749     -3651.8358     -48.050314      0.89294703     53827.717    
   2380000   582.51222      9787.9884      527.28192      2584.7419      3568.07        7931.2529     -3660.1899     -51.815951      0.89451399     53733.424    
   2400000   578.49536      9781.9114      414.98296      2568.3187      3658.8174      7956.8559     -3657.4363     -48.633561      0.90690987     52998.981    
   2400080   581.59988      9850.6758      482.50783      2570.7227      3571.5823      8087.3621     -3700.1268     -50.352427      0.91339657     52622.597    
Loop time of 4034.99 on 24 procs for 1200000 steps with 5009 atoms

Performance: 6.424 ns/day, 3.736 hours/ns, 297.398 timesteps/s, 1.490 Matom-step/s
99.5% CPU use with 24 MPI tasks x no OpenMP threads

MPI task timing breakdown:
Section |  min time  |  avg time  |  max time  |%varavg| %total
---------------------------------------------------------------
Pair    | 1809.1     | 2145.2     | 2550.3     | 420.4 | 53.16
Bond    | 525.64     | 671.36     | 753.59     | 193.1 | 16.64
Kspace  | 523.62     | 989.89     | 1438.4     | 731.1 | 24.53
Neigh   | 50.252     | 50.287     | 50.328     |   0.3 |  1.25
Comm    | 127.56     | 130.33     | 132.96     |  11.7 |  3.23
Output  | 0.0037279  | 0.004047   | 0.010863   |   2.2 |  0.00
Modify  | 32.789     | 34.881     | 36.64      |  18.5 |  0.86
Other   |            | 13.07      |            |       |  0.32

Nlocal:        208.708 ave         230 max         166 min
Histogram: 1 0 0 1 2 3 7 4 2 4
Nghost:        4736.88 ave        4806 max        4686 min
Histogram: 3 2 5 2 4 1 1 3 2 1
Neighs:        71335.1 ave       83636 max       53862 min
Histogram: 1 1 0 4 3 2 2 6 2 3

Total # of neighbors = 1712043
Ave neighs/atom = 341.79337
Ave special neighs/atom = 6.0187662
Neighbor list builds = 16934
Dangerous builds = 0
PPPM initialization ...
  using 12-bit tables for long-range coulomb (../kspace.cpp:342)
  G vector (1/distance) = 0.11763641
  grid = 4 4 4
  stencil order = 5
  estimated absolute RMS force accuracy = 0.23188105
  estimated relative force accuracy = 0.00069830289
  using double precision KISS FFT
  3d grid and FFT values/proc = 294 4
Generated 15 of 15 mixed pair_coeff terms from sixthpower/sixthpower mixing rule
Setting up Verlet run ...
  Unit style    : real
  Current step  : 2400080
  Time step     : 0.25
WARNING: Inconsistent image flags (../domain.cpp:815)
Per MPI rank memory allocation (min/avg/max) = 22.24 | 22.27 | 22.63 Mbytes
   Step          Temp          PotEng         E_vdwl         E_coul         E_bond        E_angle        E_dihed        E_impro        Density         Volume    
   2400080   581.59988      9850.7302      482.50783      2572.4685      3571.5823      8087.3621     -3700.1268     -50.352427      0.91339657     52622.597    
   2420000   562.42635      9340.0897      481.54149      2548.2973      3414.484       7757.4906     -3702.9398     -48.251058      0.90330864     53210.273    
   2440000   555.31396      9357.5234      526.38678      2565.8486      3417.0196      7653.652      -3641.2796     -51.531924      0.89350328     53794.206    
   2460000   570.69336      9456.8201      468.988        2565.0335      3494.7809      7809.9326     -3721.1267     -48.160945      0.90426534     53153.978    
   2480000   564.63878      9524.2906      388.51126      2565.348       3578.3395      7836.5676     -3686.3817     -46.231301      0.90051752     53375.196    
   2500000   561.80181      9409.7828      442.17148      2566.4412      3475.2856      7775.9461     -3686.2817     -52.000333      0.90097481     53348.106    
   2520000   564.87378      9601.8837      457.68335      2567.689       3618.5267      7881.7219     -3757.8958     -54.048615      0.90013328     53397.981    
   2540000   561.69705      9443.1019      515.52279      2582.0236      3455.3453      7881.3289     -3829.2501     -49.915501      0.90717682     52983.386    
   2560000   556.20744      9620.2666      535.19676      2558.3541      3553.1367      7838.5305     -3702.5984     -49.760259      0.90734683     52973.458    
   2580000   561.78093      9620.1781      515.9085       2570.8104      3632.0094      7874.1267     -3813.0553     -47.220436      0.90710781     52987.417    
   2600000   550.71023      9595.6308      515.24607      2562.6448      3579.0983      7880.2448     -3777.6354     -52.693212      0.90097513     53348.087    
   2620000   564.12183      9536.8927      493.6236       2565.8785      3517.0371      7823.2321     -3704.7552     -45.922527      0.89998887     53406.549    
   2640000   559.90436      9676.3864      507.51636      2573.9072      3595.2154      7925.8193     -3766.6409     -47.421866      0.89646766     53616.323    
   2660000   556.87629      9408.5352      543.93342      2552.1309      3389.1553      7809.4227     -3726.1862     -47.718319      0.90356385     53195.244    
   2680000   560.39985      9309.8084      448.89276      2564.7469      3485.3755      7708.7133     -3734.5326     -50.80452       0.89599265     53644.748    
   2700000   559.26411      9414.1739      525.97866      2563.3438      3384.9532      7850.2946     -3747.6096     -50.589079      0.90052407     53374.808    
   2720000   567.84882      9560.2569      519.62564      2546.6883      3460.8612      7829.8495     -3639.2317     -45.716787      0.89151977     53913.891    
   2740000   568.00436      9536.1254      568.05321      2554.2765      3477.0014      7839.003      -3741.1091     -48.75002       0.89756364     53550.854    
   2760000   563.41253      9495.5235      527.03656      2565.7885      3343.4324      7920.0591     -3700.81       -48.447565      0.89987143     53413.519    
   2780000   564.87554      9363.6605      399.7541       2554.3699      3442.1785      7765.0171     -3641.0277     -45.615634      0.91052806     52788.378    
   2800000   550.36484      9705.5824      465.93297      2575.3515      3568.6382      7991.3065     -3727.5829     -56.302509      0.89831619     53505.992    
   2820000   567.38947      9295.0359      378.12482      2542.6514      3471.7337      7828.4864     -3764.7345     -49.487236      0.91376905     52601.146    
   2840000   564.72917      9461.5108      405.19411      2576.3437      3483.1938      7876.1143     -3720.0648     -46.890069      0.9143953      52565.121    
   2860000   556.19075      9344.8237      462.23769      2545.0066      3479.6968      7788.0775     -3771.9496     -45.878742      0.91447978     52560.265    
   2880000   562.3701       9537.1356      504.4805       2563.5697      3536.5251      7708.7834     -3613.0081     -50.93696       0.89852559     53493.523    
   2900000   560.99327      9558.1008      437.50891      2578.7468      3479.1225      7838.5542     -3615.0168     -49.031105      0.89290996     53829.951    
   2920000   554.35524      9540.3387      480.92146      2575.2215      3508.015       7819.4278     -3677.203      -53.108895      0.88494012     54314.748    
   2940000   562.48654      9521.5157      482.43059      2574.6127      3607.5254      7719.2912     -3702.0491     -48.047886      0.88685962     54197.19     
   2960000   554.6153       9384.4796      450.10216      2580.6097      3418.682       7679.0061     -3589.5514     -42.122033      0.89714867     53575.623    
   2980000   561.61028      9396.5443      506.95163      2546.8491      3436.3346      7678.4791     -3614.0047     -45.546478      0.90101647     53345.639    
   3000000   554.07829      9632.4377      525.47054      2551.0365      3439.325       7991.5164     -3713.641      -48.41882       0.90661086     53016.461    
   3020000   567.54096      9506.3798      375.90396      2567.7941      3512.1022      7777.1164     -3565.8216     -47.620652      0.9110345      52759.033    
   3040000   554.88098      9480.0985      512.75402      2573.7694      3514.1073      7603.1527     -3561.4917     -49.708167      0.89366285     53784.601    
   3060000   556.47075      9565.2059      479.32621      2554.3485      3556.6454      7811.6699     -3678.0169     -47.401483      0.91434037     52568.279    
   3080000   555.50461      9641.7857      509.60192      2553.291       3533.3083      7822.1689     -3615.0486     -50.109641      0.90912742     52869.706    
   3100000   561.26233      9662.4331      483.17558      2545.796       3601.5194      7824.423      -3629.9342     -49.613178      0.90437033     53147.807    
   3120000   565.1737       9411.2477      506.64913      2556.9403      3398.1515      7856.9546     -3742.3291     -53.263434      0.91575038     52487.338    
   3140000   570.20487      9411.9588      424.1787       2557.9656      3555.1065      7649.0447     -3611.0647     -50.474342      0.90914104     52868.914    
   3160000   560.31483      9465.2392      482.50904      2551.1672      3460.0166      7911.6577     -3780.4123     -46.882994      0.90956047     52844.534    
   3180000   559.30863      9408.8971      442.37104      2583.5514      3491.3201      7667.9651     -3617.4687     -46.982266      0.91247251     52675.888    
   3200000   562.09131      9308.9097      466.11981      2582.1866      3385.4529      7885.3425     -3848.9977     -48.834842      0.91295974     52647.776    
   3220000   558.53792      9577.6973      459.47941      2564.388       3537.9354      7941.2066     -3766.4499     -46.444683      0.90223861     53273.379    
   3240000   558.38651      9609.1579      620.01386      2567.8685      3481.1475      7814.1676     -3710.0185     -51.286769      0.88359805     54397.245    
   3260000   564.09246      9579.4584      476.2225       2547.2         3541.5782      7840.4033     -3666.0702     -47.150926      0.89893258     53469.304    
   3280000   559.91277      9580.894       444.19631      2572.3165      3454.5683      7960.1777     -3690.5164     -47.351666      0.90469238     53128.887    
   3300000   559.41326      9519.8116      468.35609      2559.506       3466.6302      7872.8925     -3684.9205     -49.852441      0.89216254     53875.048    
   3320000   558.72061      9640.3015      578.90382      2564.6946      3520.4914      7881.9405     -3740.9024     -52.759202      0.90500436     53110.572    
   3340000   556.08607      9390.9028      479.30625      2555.229       3537.4821      7731.3954     -3751.2707     -48.624749      0.90167457     53306.704    
   3360000   560.76878      9497.9085      441.48898      2565.0907      3519.2584      7778.0403     -3641.1197     -52.190055      0.90350217     53198.876    
   3380000   565.85661      9639.849       550.20665      2558.9924      3439.6252      7870.5503     -3619.2905     -47.959298      0.89586535     53652.37     
   3400000   550.94976      9653.463       509.07672      2584.6822      3621.7478      7892.4811     -3788.3459     -53.371311      0.88678275     54201.888    
   3420000   553.06519      9581.2827      531.56299      2557.1131      3461.1329      7853.3867     -3659.5325     -49.838565      0.89655634     53611.019    
   3440000   558.28591      9755.5411      484.99563      2569.9993      3619.3209      7932.4476     -3691.342      -48.099739      0.90167818     53306.491    
   3460000   555.39159      9530.7179      604.10351      2569.254       3454.8886      7770.06       -3711.4461     -43.579332      0.89485795     53712.77     
   3480000   567.71439      9626.5741      458.6368       2568.4559      3575.835       7841.1427     -3657.5904     -47.094633      0.90628638     53035.443    
   3500000   559.4031       9486.6294      408.68722      2570.9185      3512.7632      7853.51       -3699.939      -46.212947      0.90532326     53091.864    
   3520000   561.82152      9411.6405      435.91764      2566.6091      3478.44        7882.972      -3787.2871     -52.214199      0.91472035     52546.442    
   3540000   558.52184      9530.5908      376.30492      2586.403       3495.6016      7899.0076     -3664.7927     -50.327004      0.91573252     52488.361    
   3560000   557.77024      9460.1814      490.55786      2582.2526      3491.0976      7809.73       -3752.9283     -47.985326      0.9110627      52757.4      
   3580000   556.86763      9616.516       515.3028       2589.5982      3543.5959      7819.5597     -3689.1917     -50.287351      0.90960618     52841.879    
   3600000   555.11675      9604.2394      438.73289      2557.0678      3538.0493      7879.9373     -3644.7368     -52.975895      0.90743114     52968.537    
   3600080   564.60197      9424.9162      472.19508      2549.1368      3438.1367      7838.188      -3711.8976     -48.782441      0.91049454     52790.322    
Loop time of 4037.41 on 24 procs for 1200000 steps with 5009 atoms

Performance: 6.420 ns/day, 3.738 hours/ns, 297.220 timesteps/s, 1.489 Matom-step/s
99.5% CPU use with 24 MPI tasks x no OpenMP threads

MPI task timing breakdown:
Section |  min time  |  avg time  |  max time  |%varavg| %total
---------------------------------------------------------------
Pair    | 1719.1     | 2159.6     | 2566.9     | 474.5 | 53.49
Bond    | 479.93     | 671.59     | 764.25     | 220.8 | 16.63
Kspace  | 544.26     | 978.94     | 1609.7     | 849.9 | 24.25
Neigh   | 49.224     | 49.271     | 49.336     |   0.4 |  1.22
Comm    | 126.88     | 130.33     | 133.11     |  13.6 |  3.23
Output  | 0.0043219  | 0.0047601  | 0.014241   |   2.9 |  0.00
Modify  | 32.451     | 34.508     | 36.724     |  20.9 |  0.85
Other   |            | 13.17      |            |       |  0.33

Nlocal:        208.708 ave         228 max         180 min
Histogram: 2 1 1 2 3 3 2 2 1 7
Nghost:        4697.46 ave        4809 max        4632 min
Histogram: 3 3 6 3 4 1 1 1 0 2
Neighs:        71420.6 ave       87131 max       55171 min
Histogram: 2 2 2 3 2 2 5 2 3 1

Total # of neighbors = 1714094
Ave neighs/atom = 342.20283
Ave special neighs/atom = 6.0187662
Neighbor list builds = 16427
Dangerous builds = 0
PPPM initialization ...
  using 12-bit tables for long-range coulomb (../kspace.cpp:342)
  G vector (1/distance) = 0.11754637
  grid = 4 4 4
  stencil order = 5
  estimated absolute RMS force accuracy = 0.23200313
  estimated relative force accuracy = 0.00069867052
  using double precision KISS FFT
  3d grid and FFT values/proc = 294 4
Generated 15 of 15 mixed pair_coeff terms from sixthpower/sixthpower mixing rule
Setting up Verlet run ...
  Unit style    : real
  Current step  : 3600080
  Time step     : 0.25
WARNING: Inconsistent image flags (../domain.cpp:815)
Per MPI rank memory allocation (min/avg/max) = 22.24 | 22.27 | 22.63 Mbytes
   Step          Temp          PotEng         E_vdwl         E_coul         E_bond        E_angle        E_dihed        E_impro        Density         Volume    
   3600080   564.60197      9424.8541      472.19508      2548.2255      3438.1367      7838.188      -3711.8976     -48.782441      0.91049454     52790.322    
   3620000   536.98524      9150.4371      379.70398      2567.4925      3304.6822      7800.6505     -3741.0159     -49.30648       0.92482782     51972.16     
   3640000   534.50545      9098.1634      459.45163      2570.97        3451.1512      7550.6606     -3775.9896     -46.535617      0.89943389     53439.503    
   3660000   545.30152      9128.8901      555.30394      2547.9931      3354.9695      7530.5288     -3703.5906     -45.690533      0.90892837     52881.284    
   3680000   544.1268       9200.1793      426.12599      2558.5082      3357.1985      7674.946      -3657.7694     -49.135225      0.9126865      52663.537    
   3700000   549.26761      9210.6013      428.56949      2555.7433      3364.581       7810.2048     -3789.1757     -47.728965      0.9073378      52973.985    
   3720000   540.00989      9132.7092      468.76096      2568.0962      3344.0126      7707.7218     -3798.1634     -46.802576      0.91651131     52443.76     
   3740000   547.00803      9227.3302      454.48921      2568.2863      3370.3032      7645.8266     -3649.0823     -51.106832      0.90809478     52929.827    
   3760000   554.91887      9003.6063      404.53075      2553.3805      3267.3308      7603.227      -3665.2754     -48.110441      0.92190524     52136.92     
   3780000   538.19748      9141.7599      415.93844      2573.4285      3317.8339      7652.6417     -3656.4457     -50.736178      0.91217559     52693.034    
   3800000   536.25898      9222.3962      401.0235       2546.0423      3445.1548      7735.0877     -3741.0192     -51.530954      0.89499413     53704.598    
   3820000   547.53199      9280.8736      501.32092      2572.9838      3461.7471      7650.8111     -3745.8239     -48.504964      0.90148849     53317.708    
   3840000   539.3642       9242.3163      466.17522      2569.9221      3390.4483      7709.4006     -3735.492      -47.9175        0.90462242     53132.996    
   3860000   544.92557      9208.4365      460.01377      2578.0624      3373.3771      7725.5307     -3766.5065     -51.304062      0.90680771     53004.952    
   3880000   530.97128      8980.6477      454.86033      2575.9482      3255.8409      7546.5744     -3695.0053     -46.491582      0.91660851     52438.199    
   3900000   547.00479      9330.4199      492.24533      2565.1911      3409.6241      7791.3792     -3771.9003     -46.288595      0.89915468     53456.097    
   3920000   532.009        9133.9521      441.46842      2579.2507      3310.0174      7783.9676     -3825.2338     -45.377589      0.89746553     53556.708    
   3940000   552.55461      9202.9247      433.01901      2572.9371      3390.1346      7678.0238     -3716.6265     -43.863979      0.90367203     53188.876    
   3960000   538.61937      9189.6031      474.88439      2555.0127      3452.1689      7777.9061     -3904.9685     -53.942251      0.9042616      53154.197    
   3980000   536.96837      9183.3465      394.18848      2552.982       3421.3239      7659.9723     -3689.228      -43.430757      0.9104483      52793.003    
   4000000   527.01894      9094.2215      412.05729      2545.8329      3428.7314      7560.9677     -3694.3417     -48.67801       0.90410992     53163.115    
   4020000   529.00916      9015.4329      327.49162      2542.3883      3317.533       7644.0514     -3655.3856     -49.153049      0.92164063     52151.889    
   4040000   540.56919      9173.7133      494.63925      2568.153       3504.3492      7565.7659     -3795.4187     -51.788085      0.90647117     53024.631    
   4060000   553.07996      9301.4347      372.15621      2549.9092      3458.904       7848.8468     -3766.8571     -50.683264      0.90559789     53075.764    
   4080000   549.80588      9170.9907      458.43234      2570.4519      3324.453       7744.6859     -3760.1668     -55.086027      0.90830339     52917.67     
   4100000   560.99029      9304.5211      528.91161      2556.7435      3406.2585      7700.7962     -3735.124      -41.968358      0.90093251     53350.61     
   4120000   539.94208      9146.7157      378.44731      2577.4841      3407.0126      7743.895      -3803.2726     -45.161042      0.90459889     53134.378    
   4140000   529.90356      9078.8514      492.10857      2557.8105      3387.1206      7614.0856     -3810.6056     -50.104521      0.92432547     52000.406    
   4160000   543.55936      9206.5575      515.64421      2577.7285      3271.9849      7821.302      -3819.4975     -49.20764       0.91144571     52735.23     
   4180000   534.13766      9230.8584      395.63483      2573.8952      3398.4218      7747.034      -3723.1301     -49.925336      0.91389362     52593.976    
   4200000   539.96313      9103.2032      500.36378      2569.071       3351.7085      7625.15       -3779.9734     -51.058921      0.90600785     53051.747    
   4220000   540.83371      9099.9659      505.34198      2571.2601      3358.8791      7559.8568     -3739.1282     -45.504409      0.91080925     52772.081    
   4240000   550.80639      9135.6228      377.07798      2589.3916      3314.5083      7666.3201     -3653.3384     -46.224603      0.9047832      53123.555    
   4260000   532.08687      9196.3913      394.99972      2586.7508      3444.8665      7717.3471     -3789.8671     -46.332675      0.91333214     52626.309    
   4280000   533.18551      9154.9785      436.85178      2554.9257      3364.0574      7657.4784     -3699.8059     -48.06557       0.90417637     53159.208    
   4300000   545.73465      9180.9772      372.54026      2572.2705      3372.4244      7834.4198     -3813.5883     -45.332036      0.92786725     51801.914    
   4320000   537.16408      9205.283       448.72961      2574.3225      3398.2665      7655.092      -3715.2247     -44.072073      0.90681445     53004.559    
   4340000   552.96584      9109.1171      404.57933      2587.2238      3385.5132      7604.8914     -3713.6558     -47.746499      0.90147295     53318.627    
   4360000   539.90954      9227.7092      430.24351      2582.19        3385.6604      7747.8996     -3757.7677     -48.22249       0.90877171     52890.4      
   4380000   537.49362      9171.6339      353.98354      2588.2334      3422.2182      7598.3153     -3633.2047     -46.567863      0.92735333     51830.621    
   4400000   549.22483      9138.8485      416.78919      2576.8844      3368.2056      7698.4856     -3766.8924     -42.940741      0.91898544     52302.569    
   4420000   538.55789      9235.6301      434.03409      2571.1437      3485.2818      7670.696      -3765.6039     -47.744717      0.92860692     51760.652    
   4440000   544.07728      9199.8807      427.1321       2563.451       3357.8896      7715.034      -3707.9198     -44.55964       0.92322077     52062.628    
   4460000   538.26154      9172.8047      443.70521      2576.6822      3381.4379      7679.9922     -3748.6597     -49.175297      0.90912878     52869.627    
   4480000   542.74328      9222.2428      434.19376      2562.0407      3376.6052      7658.9905     -3646.7605     -51.247842      0.91572697     52488.68     
   4500000   542.24617      9281.2247      487.4885       2581.7374      3391.772       7721.8138     -3744.5218     -45.466427      0.90321526     53215.774    
   4520000   546.28069      9281.3231      442.6241       2593.1672      3499.8461      7691.4442     -3783.5632     -50.589609      0.91151919     52730.979    
   4540000   536.75535      9116.1552      468.77967      2573.0114      3360.8999      7698.0833     -3826.0766     -47.589248      0.91286005     52653.525    
   4560000   545.07307      9234.4885      470.37567      2578.6905      3388.5763      7724.652      -3767.1782     -48.649002      0.91694665     52418.862    
   4580000   554.38301      9175.6256      386.73566      2563.7242      3363.3311      7688.1939     -3667.0257     -48.157964      0.91033341     52799.666    
   4600000   547.96638      9134.8845      479.9518       2576.134       3327.3856      7729.3223     -3815.4423     -50.586517      0.91755623     52384.037    
   4620000   550.42999      9244.0654      358.44086      2567.689       3369.6731      7840.0147     -3730.7171     -49.24324       0.9265035      51878.163    
   4640000   545.36103      9046.961       437.58229      2585.0917      3287.8235      7510.4519     -3613.0217     -49.701387      0.91727179     52400.281    
   4660000   550.81115      9060.2271      412.46229      2579.7681      3310.8029      7649.9116     -3733.3071     -47.628903      0.9084866      52906.999    
   4680000   534.89775      9240.341       445.39169      2571.4133      3418.0385      7704.3248     -3738.8926     -47.624095      0.91646099     52446.64     
   4700000   541.60841      9129.1712      412.55236      2590.1296      3361.239       7756.4231     -3826.0317     -52.805872      0.9063633      53030.942    
   4720000   538.04522      9297.8582      442.38863      2579.9121      3313.5797      7966.0585     -3841.4938     -51.304471      0.92189549     52137.471    
   4740000   529.4093       9280.9021      506.41577      2585.3931      3343.2158      7566.0136     -3559.7411     -49.330363      0.91124044     52747.11     
   4760000   548.85846      9326.0898      404.08115      2572.3743      3437.7638      7667.5374     -3592.6649     -51.88367       0.9124048      52679.797    
   4780000   541.1836       9134.3702      414.03811      2560.1636      3333.5223      7695.7004     -3709.5582     -48.053596      0.9162507      52458.677    
   4800000   541.07186      9221.2172      547.1269       2551.342       3390.61        7702.7692     -3811.9876     -46.500012      0.90760104     52958.621    
   4800080   545.73809      9349.2438      494.45095      2558.1817      3458.0119      7706.545      -3710.9207     -45.015112      0.90291778     53233.307    
Loop time of 4131.41 on 24 procs for 1200000 steps with 5009 atoms

Performance: 6.274 ns/day, 3.825 hours/ns, 290.458 timesteps/s, 1.455 Matom-step/s
99.5% CPU use with 24 MPI tasks x no OpenMP threads

MPI task timing breakdown:
Section |  min time  |  avg time  |  max time  |%varavg| %total
---------------------------------------------------------------
Pair    | 1863       | 2171.9     | 2641.5     | 451.5 | 52.57
Bond    | 539.02     | 671.22     | 751.26     | 188.3 | 16.25
Kspace  | 512.27     | 1060.9     | 1448.6     | 758.7 | 25.68
Neigh   | 47.887     | 47.926     | 47.972     |   0.4 |  1.16
Comm    | 127.5      | 131.07     | 133.96     |  14.3 |  3.17
Output  | 0.0029583  | 0.003504   | 0.015566   |   4.2 |  0.00
Modify  | 33.105     | 35.238     | 37.467     |  19.4 |  0.85
Other   |            | 13.08      |            |       |  0.32

Nlocal:        208.708 ave         238 max         176 min
Histogram: 2 0 1 6 3 3 2 2 3 2
Nghost:        4706.12 ave        4799 max        4640 min
Histogram: 3 4 3 1 5 2 2 0 2 2
Neighs:        70981.2 ave       86283 max       55156 min
Histogram: 2 0 5 4 1 2 3 4 0 3

Total # of neighbors = 1703548
Ave neighs/atom = 340.09742
Ave special neighs/atom = 6.0187662
Neighbor list builds = 15870
Dangerous builds = 0
PPPM initialization ...
  using 12-bit tables for long-range coulomb (../kspace.cpp:342)
  G vector (1/distance) = 0.11731012
  grid = 4 4 4
  stencil order = 5
  estimated absolute RMS force accuracy = 0.23232129
  estimated relative force accuracy = 0.00069962867
  using double precision KISS FFT
  3d grid and FFT values/proc = 294 4
Generated 15 of 15 mixed pair_coeff terms from sixthpower/sixthpower mixing rule
Setting up Verlet run ...
  Unit style    : real
  Current step  : 4800080
  Time step     : 0.25
WARNING: Inconsistent image flags (../domain.cpp:815)
Per MPI rank memory allocation (min/avg/max) = 22.24 | 22.27 | 22.63 Mbytes
   Step          Temp          PotEng         E_vdwl         E_coul         E_bond        E_angle        E_dihed        E_impro        Density         Volume    
   4800080   545.73809      9349.2521      494.45095      2555.9587      3458.0119      7706.545      -3710.9207     -45.015112      0.90291778     53233.307    
   4820000   519.31406      8895.3104      386.15808      2570.6208      3278.0164      7528.1099     -3712.8649     -45.203351      0.925729       51921.566    
   4840000   517.02322      8829.2228      344.01743      2579.9997      3160.5674      7623.9072     -3721.4843     -48.258877      0.91991412     52249.768    
   4860000   521.3595       8830.7133      403.69439      2560.4063      3250.6162      7555.6499     -3780.4977     -50.458583      0.93213487     51564.748    
   4880000   517.53475      8821.4905      469.60938      2574.6539      3227.4795      7420.2652     -3712.9557     -48.603175      0.91837717     52337.21     
   4900000   510.46171      8917.2569      398.42046      2559.661       3239.9736      7658.9482     -3778.2233     -51.610546      0.93200856     51571.736    
   4920000   518.01559      8935.9117      415.76282      2573.1555      3227.7723      7659.0027     -3787.2864     -43.907974      0.92603228     51904.562    
   4940000   521.29922      8932.8307      437.41401      2571.7139      3303.6272      7553.532      -3773.7824     -49.498645      0.91916015     52292.628    
   4960000   520.84024      8851.0557      396.75876      2581.7534      3194.7487      7527.0014     -3688.5103     -52.075294      0.9337293      51476.696    
   4980000   521.12557      8856.8547      365.58262      2578.1707      3231.8927      7522.3403     -3683.8864     -48.285342      0.91467509     52549.041    
   5000000   521.9743       8683.9549      312.19092      2573.2158      3342.1974      7374.9148     -3762.4839     -46.390062      0.92449759     51990.725    
   5020000   523.37765      8649.2478      321.85505      2561.3558      3135.3769      7560.0933     -3774.2979     -45.051595      0.917527       52385.706    
   5040000   521.93751      8743.4272      385.96274      2571.5393      3307.1968      7445.3525     -3808.3434     -47.938368      0.92653691     51876.292    
   5060000   510.50048      8594.712       355.12044      2572.3886      3225.4749      7376.3668     -3776.9125     -48.077768      0.92125125     52173.932    
   5080000   524.51371      8735.5653      339.30814      2559.1688      3194.187       7533.3277     -3731.1086     -50.239078      0.92205594     52128.398    
   5100000   516.509        8673.6109      320.31177      2565.6677      3125.8503      7585.8797     -3766.3911     -49.731465      0.92891157     51743.676    
   5120000   520.63101      8744.3913      319.61152      2553.6899      3208.9741      7504.8747     -3681.5897     -51.261609      0.92395904     52021.028    
   5140000   520.48768      8717.9843      320.12983      2539.7336      3295.7484      7642.8899     -3924.7467     -47.428603      0.92787829     51801.298    
   5160000   523.61884      8711.6444      354.61051      2565.8548      3205.84        7587.2279     -3851.545      -43.807618      0.94495966     50864.922    
   5180000   515.27469      8735.4494      357.59673      2554.1989      3236.1249      7530.8226     -3783.5938     -50.675321      0.93081156     51638.056    
   5200000   533.1409       8793.6392      342.15764      2556.5993      3205.5164      7669.7757     -3826.4378     -45.310015      0.9226053      52097.359    
   5220000   509.76816      8821.4168      406.27639      2577.5269      3205.2292      7476.9006     -3687.2746     -47.583782      0.91278207     52658.023    
   5240000   515.25984      8917.7565      398.91297      2577.919       3209.928       7621.793      -3732.6271     -48.412223      0.9280303      51792.813    
   5260000   520.49111      8675.4899      449.04076      2574.9258      3153.0681      7443.0275     -3790.2534     -45.266502      0.91302052     52644.271    
   5280000   522.54652      8917.7366      452.44292      2557.2386      3214.3278      7644.6614     -3794.7853     -47.189123      0.89440538     53739.949    
   5300000   517.46983      8855.0337      451.02998      2546.7391      3326.7779      7451.8029     -3763.695      -48.074914      0.9102864      52802.392    
   5320000   519.14772      8816.7798      362.81355      2574.4946      3262.0654      7608.4177     -3831.8856     -50.06006       0.91387142     52595.254    
   5340000   521.87673      8818.3815      362.68791      2555.9833      3300.9196      7566.0952     -3813.0686     -44.961809      0.91365304     52607.825    
   5360000   506.9903       8675.5734      357.97375      2556.1052      3213.4191      7431.4274     -3727.6148     -46.069103      0.9263875      51884.659    
   5380000   512.69048      8918.4642      375.92748      2574.5717      3344.704       7497.4549     -3716.3242     -48.450632      0.9135663      52612.82     
   5400000   527.61329      8786.4399      404.22876      2568.5649      3227.4635      7421.7283     -3680.9369     -44.736627      0.90813265     52927.62     
   5420000   524.46223      8879.6468      418.3253       2582.9904      3266.9669      7562.9571     -3792.3706     -50.224155      0.90562849     53073.97     
   5440000   527.28922      8656.0732      411.91846      2567.5542      3163.1542      7358.2392     -3688.9587     -46.730328      0.91362671     52609.341    
   5460000   518.21898      8769.7948      338.23843      2555.262       3326.1785      7417.3152     -3710.9747     -45.857612      0.90740253     52970.207    
   5480000   526.5365       8819.3209      423.2397       2558.8668      3184.5262      7640.3072     -3829.663      -47.716977      0.91632733     52454.29     
   5500000   517.28243      8800.9001      297.04113      2580.1288      3441.7374      7307.5217     -3667.8092     -47.5779        0.91470815     52547.143    
   5520000   526.72383      8848.1062      401.37567      2559.4458      3263.8992      7541.5771     -3762.0429     -46.074813      0.9199638      52246.947    
   5540000   525.19241      9017.8527      437.21143      2571.0158      3330.6607      7624.3493     -3784.3274     -51.565401      0.91262277     52667.215    
   5560000   516.9336       8836.6521      420.90034      2572.8583      3168.0676      7638.4174     -3807.18       -46.37504       0.91682348     52425.904    
   5580000   523.90923      8761.3561      404.20381      2575.3949      3214.354       7483.881      -3759.382      -47.377327      0.90348032     53200.162    
   5600000   513.94767      8777.2516      468.55917      2556.4883      3172.031       7538.9453     -3799.6178     -49.078641      0.91938711     52279.719    
   5620000   513.94534      8833.4728      446.85876      2547.6645      3194.8702      7629.1454     -3823.3144     -52.361637      0.90935096     52856.71     
   5640000   524.02168      8768.8441      392.87648      2556.9899      3193.806       7453.5        -3673.4062     -44.787593      0.91204176     52700.766    
   5660000   520.78068      8819.0101      395.48703      2556.0006      3262.2192      7513.575      -3749.2687     -48.941479      0.91579528     52484.765    
   5680000   525.74059      8810.8779      414.65823      2566.934       3263.8657      7509.6427     -3789.3272     -44.61352       0.9145519      52556.12     
   5700000   514.63188      8829.3683      482.3947       2553.9428      3285.9454      7457.7071     -3796.0114     -44.918394      0.90099163     53347.11     
   5720000   513.40992      8713.2429      405.05079      2546.7379      3186.0808      7550.4852     -3816.1356     -49.105903      0.91227125     52687.509    
   5740000   524.53279      8742.31        404.53846      2559.2083      3246.7982      7485.4648     -3795.894      -47.835723      0.90566571     53071.789    
   5760000   528.15778      8844.7984      469.47426      2539.742       3196.3449      7502.0245     -3703.7267     -50.162228      0.91784021     52367.829    
   5780000   525.5457       8824.0618      416.64943      2552.5985      3267.1753      7492.4879     -3747.0417     -48.591141      0.91660137     52438.607    
   5800000   521.18488      8808.11        367.87484      2565.8512      3264.1869      7588.2819     -3821.0447     -48.313188      0.92711035     51844.206    
   5820000   516.96323      8855.2625      435.20642      2551.9032      3251.1269      7665.0036     -3893.705      -47.357701      0.9125082      52673.827    
   5840000   513.34619      8844.5271      425.46389      2575.3033      3283.5215      7425.4944     -3713.2636     -43.214786      0.91571042     52489.628    
   5860000   521.85455      8815.9363      438.19356      2555.1819      3105.2606      7604.9449     -3730.2284     -48.86149       0.9135499      52613.765    
   5880000   521.83152      8758.2946      315.0016       2558.2507      3323.1348      7349.7126     -3633.2565     -46.088955      0.92848988     51767.176    
   5900000   518.91666      9023.0507      408.22891      2570.2404      3291.4659      7596.3434     -3684.2841     -49.471602      0.91160917     52725.774    
   5920000   514.70106      8902.894       422.03813      2570.2283      3271.0976      7547.0366     -3750.76       -47.047406      0.90128178     53329.936    
   5940000   518.95359      8848.4036      450.91977      2552.0178      3243.8922      7500.9259     -3743.8544     -46.445315      0.90752547     52963.031    
   5960000   525.66646      8819.5673      502.75459      2548.5054      3199.2497      7530.0039     -3806.9099     -46.234652      0.90563487     53073.596    
   5980000   520.41057      9060.026       434.72947      2568.9486      3209.2799      7773.8138     -3772.5161     -44.920892      0.90390299     53175.286    
   6000000   518.96846      8873.229       389.33275      2562.8874      3310.0977      7561.5778     -3791.0145     -49.613294      0.90588162     53059.14     
   6000080   520.61777      8815.8525      427.55354      2565.0986      3371.7373      7489.223      -3878.9666     -48.71099       0.91184303     52712.252    
Loop time of 4124.97 on 24 procs for 1200000 steps with 5009 atoms

Performance: 6.284 ns/day, 3.819 hours/ns, 290.911 timesteps/s, 1.457 Matom-step/s
99.5% CPU use with 24 MPI tasks x no OpenMP threads

MPI task timing breakdown:
Section |  min time  |  avg time  |  max time  |%varavg| %total
---------------------------------------------------------------
Pair    | 1845.1     | 2189.1     | 2578.7     | 466.6 | 53.07
Bond    | 549.44     | 670.93     | 769.21     | 195.2 | 16.27
Kspace  | 555.08     | 1038       | 1424.2     | 800.8 | 25.16
Neigh   | 46.338     | 46.379     | 46.436     |   0.4 |  1.12
Comm    | 128.24     | 131.75     | 134.65     |  14.3 |  3.19
Output  | 0.0035024  | 0.0039538  | 0.013786   |   3.3 |  0.00
Modify  | 33.386     | 35.556     | 37.553     |  18.9 |  0.86
Other   |            | 13.28      |            |       |  0.32

Nlocal:        208.708 ave         227 max         186 min
Histogram: 3 1 4 1 1 1 4 1 3 5
Nghost:           4732 ave        4805 max        4679 min
Histogram: 3 3 1 4 5 3 1 2 0 2
Neighs:        71679.7 ave       84906 max       56913 min
Histogram: 3 0 3 2 4 3 1 2 2 4

Total # of neighbors = 1720313
Ave neighs/atom = 343.4444
Ave special neighs/atom = 6.0187662
Neighbor list builds = 15331
Dangerous builds = 0
PPPM initialization ...
  using 12-bit tables for long-range coulomb (../kspace.cpp:342)
  G vector (1/distance) = 0.11758824
  grid = 4 4 4
  stencil order = 5
  estimated absolute RMS force accuracy = 0.23194641
  estimated relative force accuracy = 0.00069849974
  using double precision KISS FFT
  3d grid and FFT values/proc = 294 4
Generated 15 of 15 mixed pair_coeff terms from sixthpower/sixthpower mixing rule
Setting up Verlet run ...
  Unit style    : real
  Current step  : 6000080
  Time step     : 0.25
WARNING: Inconsistent image flags (../domain.cpp:815)
Per MPI rank memory allocation (min/avg/max) = 22.24 | 22.27 | 22.63 Mbytes
   Step          Temp          PotEng         E_vdwl         E_coul         E_bond        E_angle        E_dihed        E_impro        Density         Volume    
   6000080   520.61777      8815.8408      427.55354      2567.7133      3371.7373      7489.223      -3878.9666     -48.71099       0.91184303     52712.252    
   6020000   512.59371      8357.3199      373.85762      2544.7954      3052.9604      7408.4852     -3864.9379     -45.850193      0.92564524     51926.264    
   6040000   493.73844      8548.513       350.50982      2554.6346      3161.2655      7420.5654     -3780.38       -46.441377      0.92665354     51869.763    
   6060000   505.02749      8559.6367      332.52786      2551.393       3230.3461      7457.3621     -3851.0536     -48.980003      0.92415751     52009.857    
   6080000   496.82015      8488.5087      356.25025      2567.091       3033.7706      7460.961      -3767.3913     -49.647916      0.9235318      52045.094    
   6100000   498.6495       8388.9912      284.49447      2542.6183      3141.6786      7388.8507     -3808.626      -47.896839      0.92983142     51692.488    
   6120000   499.95556      8449.7509      360.44993      2555.5826      3107.6423      7394.8533     -3809.0872     -47.823566      0.92017464     52234.975    
   6140000   510.499        8351.8285      367.42476      2567.498       3092.9936      7374.7676     -3891.8331     -48.825579      0.93322734     51504.384    
   6160000   494.31297      8575.8873      359.1938       2552.2314      3297.3686      7363.088      -3839.906      -44.538619      0.91871795     52317.797    
   6180000   502.90786      8386.9943      381.72018      2549.3195      3076.9395      7449.0356     -3915.5928     -41.104933      0.93264685     51536.441    
   6200000   499.94971      8468.1108      328.1512       2561.102       3133.5382      7320.3284     -3718.5054     -44.68406       0.93781913     51252.206    
   6220000   491.22317      8434.2119      358.82469      2568.4945      3126.3519      7325.4083     -3783.664      -48.639846      0.92893451     51742.398    
   6240000   503.31212      8647.0218      359.98472      2581.342       3236.9756      7466.3158     -3839.7867     -45.58428       0.92362861     52039.639    
   6260000   505.79797      8474.3006      375.45106      2550.1456      3055.4503      7458.1566     -3802.0871     -50.583853      0.92378215     52030.989    
   6280000   499.57729      8482.4928      373.44854      2566.5841      3194.427       7289.1779     -3787.4658     -43.004229      0.92534382     51943.179    
   6300000   501.98529      8424.6541      445.01658      2563.9273      3112.3799      7414.3326     -3952.0448     -46.576279      0.92732931     51831.964    
   6320000   494.85901      8518.0636      388.9334       2587.1036      3115.1889      7432.3238     -3844.9221     -48.08883       0.92471097     51978.728    
   6340000   500.07092      8480.9446      325.42627      2569.2678      3100.2419      7436.5648     -3791.6037     -47.17803       0.92442415     51994.855    
   6360000   500.78541      8498.5156      260.33067      2588.6585      3234.5821      7301.1949     -3725.75       -48.758632      0.9190652      52298.03     
   6380000   497.72336      8359.7302      285.81304      2553.5366      3072.9706      7441.796      -3841.0682     -41.658419      0.928883       51745.268    
   6400000   505.69618      8459.3422      355.61927      2567.6845      3081.7241      7406.796      -3795.7675     -44.900965      0.93141628     51604.53     
   6420000   499.41927      8362.2837      351.14792      2539.2487      3105.904       7383.3225     -3852.9225     -51.809511      0.92984221     51691.888    
   6440000   504.03122      8323.5828      347.84942      2567.3071      3057.6999      7374.2048     -3863.1141     -48.180086      0.94139964     51057.274    
   6460000   501.49893      8511.9281      319.4652       2572.6385      3147.3911      7474.41       -3843.8381     -47.056528      0.92147199     52161.433    
   6480000   500.62252      8474.0691      319.91722      2557.5523      3101.9639      7481.3274     -3827.42       -47.48854       0.93549659     51379.449    
   6500000   504.32456      8499.0347      301.39707      2577.2339      3190.2735      7315.6285     -3728.2116     -45.060121      0.92989068     51689.194    
   6520000   513.98217      8486.7607      299.90251      2548.0009      3049.686       7638.4942     -3888.6542     -48.829017      0.94028029     51118.055    
   6540000   496.61512      8538.8427      415.17293      2556.5569      3135.0984      7464.8674     -3872.5574     -48.305309      0.91696949     52417.556    
   6560000   501.6985       8674.1508      365.79182      2554.923       3203.9761      7514.896      -3801.4019     -51.156099      0.92544048     51937.754    
   6580000   499.67127      8334.8154      242.66524      2552.3647      3146.5857      7326.6226     -3775.2515     -45.955655      0.91871981     52317.691    
   6600000   491.60177      8375.1241      391.9747       2547.9456      3065.0788      7357.0671     -3827.2404     -47.711671      0.92330342     52057.967    
   6620000   500.81117      8358.8313      379.45832      2567.3907      3058.8392      7311.5179     -3802.395      -44.41068       0.91686522     52423.517    
   6640000   504.05262      8437.6966      319.29067      2540.3786      3209.8839      7227.5234     -3703.6428     -43.677951      0.92481826     51972.697    
   6660000   499.57661      8448.3703      424.77518      2561.7682      3142.8173      7303.1567     -3825.6537     -47.078441      0.92177419     52144.332    
   6680000   495.74454      8385.2152      366.37622      2566.0028      3097.7956      7355.2943     -3843.6763     -44.02481       0.90837807     52913.32     
   6700000   497.24507      8449.6239      304.10168      2558.3962      3155.4956      7486.8904     -3897.1404     -45.88342       0.92333062     52056.434    
   6720000   487.06572      8570.8536      333.50113      2552.4461      3171.7356      7499.5204     -3827.2232     -48.194889      0.91961823     52266.58     
   6740000   496.06923      8566.5469      380.51209      2553.1952      3088.1637      7511.7378     -3811.1742     -43.895017      0.92194966     52134.408    
   6760000   501.08826      8467.3846      349.6489       2570.9464      3094.5372      7441.099      -3829.8983     -46.686094      0.92557546     51930.179    
   6780000   490.21776      8437.1253      323.36439      2553.8342      3154.9053      7370.7603     -3810.6853     -43.491588      0.92971437     51698.996    
   6800000   500.73769      8532.6556      387.32874      2572.3804      3143.6308      7344.8233     -3758.0401     -45.239859      0.91780249     52369.981    
   6820000   499.20577      8443.6757      375.16238      2557.2995      3163.0451      7320.7071     -3812.4392     -47.525864      0.93145381     51602.451    
   6840000   504.76682      8401.3016      387.35832      2570.7057      3071.7473      7430.6786     -3896.6388     -50.759412      0.92850711     51766.216    
   6860000   497.24137      8459.1386      359.05446      2569.7044      3045.3752      7400.5334     -3756.2287     -47.587285      0.92102055     52187        
   6880000   500.67502      8577.0937      311.86227      2547.2081      3187.6971      7451.7479     -3764.5707     -45.962644      0.9269024      51855.837    
   6900000   503.9842       8531.4405      385.95499      2559.2151      3239.3421      7349.1557     -3845.028      -47.323201      0.93329281     51500.771    
   6920000   503.10535      8488.0497      331.15283      2569.1667      3178.5573      7415.3501     -3843.4231     -50.750056      0.92315134     52066.544    
   6940000   504.31306      8580.0356      313.02731      2560.9726      3245.6333      7375.5285     -3758.5357     -45.240145      0.9213763      52166.85     
   6960000   494.82123      8437.5084      375.34014      2571.3224      3113.8345      7278.3683     -3742.3691     -46.978677      0.91502175     52529.133    
   6980000   505.34417      8633.6043      384.12288      2566.9033      3144.4345      7490.6533     -3789.7798     -50.9139        0.91165648     52723.038    
   7000000   495.31896      8532.4651      441.22128      2568.1024      3053.7804      7482.0582     -3854.8087     -46.257041      0.91300588     52645.115    
   7020000   494.00095      8365.6553      321.26592      2552.7028      3081.2402      7263.0261     -3695.4199     -44.920492      0.92563477     51926.852    
   7040000   491.46365      8451.8846      394.45972      2554.873       3176.0586      7353.2225     -3870.7848     -45.125191      0.91801669     52357.762    
   7060000   494.2041       8535.257       300.50934      2546.3493      3184.2179      7459.1699     -3791.997      -50.764995      0.923418       52051.508    
   7080000   498.56974      8479.3338      355.03379      2544.4231      3053.492       7548.5069     -3864.2567     -45.757156      0.92245636     52105.77     
   7100000   508.71791      8540.151       346.38353      2538.8548      3145.7086      7390.896      -3722.1217     -47.705766      0.91492448     52534.718    
   7120000   496.40113      8464.7097      338.63292      2549.9825      3096.7962      7350.4636     -3710.7515     -49.286931      0.92915349     51730.204    
   7140000   503.2809       8546.8093      407.97203      2551.5241      3158.8457      7411.1238     -3823.6568     -47.472337      0.93367002     51479.965    
   7160000   494.1159       8404.1248      325.05713      2541.5904      3090.3001      7430.8047     -3823.3812     -48.637978      0.93653954     51322.232    
   7180000   503.2966       8574.4128      373.49281      2575.5424      3111.4286      7485.5627     -3812.4508     -46.76903       0.92522291     51949.967    
   7200000   493.20316      8498.1382      342.37496      2553.1953      3119.728       7396.5506     -3752.5732     -49.36412       0.91531244     52512.451    
   7200080   495.65114      8632.128       392.13805      2555.1322      3176.4824      7394.0424     -3725.7738     -48.118206      0.91800454     52358.455    
Loop time of 4110.47 on 24 procs for 1200000 steps with 5009 atoms

Performance: 6.306 ns/day, 3.806 hours/ns, 291.938 timesteps/s, 1.462 Matom-step/s
99.5% CPU use with 24 MPI tasks x no OpenMP threads

MPI task timing breakdown:
Section |  min time  |  avg time  |  max time  |%varavg| %total
---------------------------------------------------------------
Pair    | 1857.8     | 2204.5     | 2600.3     | 456.1 | 53.63
Bond    | 570.23     | 670.55     | 744.21     | 184.0 | 16.31
Kspace  | 586.49     | 1010.8     | 1393.4     | 770.5 | 24.59
Neigh   | 44.361     | 44.402     | 44.463     |   0.4 |  1.08
Comm    | 127.58     | 131.54     | 134.7      |  15.3 |  3.20
Output  | 0.0029317  | 0.0034619  | 0.015155   |   4.1 |  0.00
Modify  | 33.244     | 35.441     | 37.709     |  20.8 |  0.86
Other   |            | 13.23      |            |       |  0.32

Nlocal:        208.708 ave         233 max         184 min
Histogram: 2 2 0 4 4 5 0 4 2 1
Nghost:        4758.46 ave        4848 max        4680 min
Histogram: 3 0 5 2 4 3 2 1 2 2
Neighs:        72152.2 ave       89767 max       57996 min
Histogram: 2 2 5 2 1 6 4 0 1 1

Total # of neighbors = 1731653
Ave neighs/atom = 345.70833
Ave special neighs/atom = 6.0187662
Neighbor list builds = 14708
Dangerous builds = 0
PPPM initialization ...
  using 12-bit tables for long-range coulomb (../kspace.cpp:342)
  G vector (1/distance) = 0.11777885
  grid = 4 4 4
  stencil order = 5
  estimated absolute RMS force accuracy = 0.23168697
  estimated relative force accuracy = 0.00069771843
  using double precision KISS FFT
  3d grid and FFT values/proc = 294 4
Generated 15 of 15 mixed pair_coeff terms from sixthpower/sixthpower mixing rule
Setting up Verlet run ...
  Unit style    : real
  Current step  : 7200080
  Time step     : 0.25
WARNING: Inconsistent image flags (../domain.cpp:815)
Per MPI rank memory allocation (min/avg/max) = 22.24 | 22.27 | 22.63 Mbytes
   Step          Temp          PotEng         E_vdwl         E_coul         E_bond        E_angle        E_dihed        E_impro        Density         Volume    
   7200080   495.65114      8632.204       392.13805      2557.0067      3176.4824      7394.0424     -3725.7738     -48.118206      0.91800454     52358.455    
   7220000   476.67762      8137.2884      280.23088      2569.9974      3005.5288      7132.6855     -3691.0828     -47.196582      0.92193008     52135.515    
   7240000   487.54474      8263.1172      344.74479      2549.246       3121.347       7168.9647     -3761.8249     -45.506058      0.9245197      51989.481    
   7260000   482.45895      8054.5169      392.06549      2548.6788      2937.2413      7172.8284     -3837.6364     -44.578109      0.92792926     51798.452    
   7280000   479.17445      8200.8793      263.34245      2539.894       3121.591       7132.143      -3701.391      -42.854782      0.9203106      52227.258    
   7300000   481.76685      8260.2674      327.08791      2563.8573      3079.6527      7277.1147     -3826.4931     -46.587443      0.93556375     51375.761    
   7320000   478.92184      8259.4655      272.51015      2556.425       3115.9909      7253.6661     -3781.4163     -45.151733      0.91632805     52454.249    
   7340000   477.8237       8090.5255      338.2428       2551.1151      2942.8363      7205.4294     -3787.3777     -45.934804      0.93116407     51618.507    
   7360000   473.10067      8081.5294      331.81489      2533.8857      3027.6259      7205.1342     -3857.5203     -45.563108      0.92797735     51795.768    
   7380000   478.32986      8125.7803      372.3006       2534.8667      3028.2592      7221.5576     -3872.5875     -45.150824      0.93028305     51667.393    
   7400000   471.05325      8094.5031      351.15         2557.9024      2976.3462      7230.4498     -3862.0413     -45.963443      0.92669276     51867.568    
   7420000   483.76904      8219.8866      269.63131      2553.2943      3069.858       7254.0515     -3765.7296     -47.017881      0.93309383     51511.754    
   7440000   478.99506      8210.2001      349.79983      2564.0795      2994.5382      7213.1326     -3751.7025     -45.754592      0.92848556     51767.417    
   7460000   473.9416       8226.526       384.34087      2570.5507      2976.7997      7392.9328     -3937.3446     -46.857718      0.92806304     51790.985    
   7480000   472.51107      8104.036       361.97586      2533.5774      2973.2475      7282.4677     -3885.3859     -48.315995      0.92210566     52125.588    
[...]
Neigh   | 27.422     | 27.456     | 27.498     |   0.4 |  0.66
Comm    | 131.82     | 135.07     | 137.75     |  12.9 |  3.24
Output  | 0.0050743  | 0.0054856  | 0.014319   |   2.5 |  0.00
Modify  | 32.854     | 34.931     | 36.844     |  19.2 |  0.84
Other   |            | 13.53      |            |       |  0.32

Nlocal:        208.708 ave         231 max         186 min
Histogram: 2 1 2 2 5 4 3 0 2 3
Nghost:         5046.5 ave        5116 max        4994 min
Histogram: 2 5 1 2 4 5 3 0 0 2
Neighs:        78874.8 ave       91952 max       67973 min
Histogram: 4 4 2 0 1 4 4 2 2 1

Total # of neighbors = 1892996
Ave neighs/atom = 377.91895
Ave special neighs/atom = 6.0187662
Neighbor list builds = 9058
Dangerous builds = 0
PPPM initialization ...
  using 12-bit tables for long-range coulomb (../kspace.cpp:342)
  G vector (1/distance) = 0.12027481
  grid = 4 4 4
  stencil order = 5
  estimated absolute RMS force accuracy = 0.2281057
  estimated relative force accuracy = 0.00068693354
  using double precision KISS FFT
  3d grid and FFT values/proc = 294 4
Generated 15 of 15 mixed pair_coeff terms from sixthpower/sixthpower mixing rule
Setting up Verlet run ...
  Unit style    : real
  Current step  : 22800080
  Time step     : 0.25
WARNING: Inconsistent image flags (../domain.cpp:815)
Per MPI rank memory allocation (min/avg/max) = 22.24 | 22.28 | 22.64 Mbytes
   Step          Temp          PotEng         E_vdwl         E_coul         E_bond        E_angle        E_dihed        E_impro        Density         Volume    
  22800080   239.01908      4117.2994     -183.32186      2531.1876      1585.6956      5709.3745     -4351.5717     -35.215639      1.0021283      47963.22     
  22820000   225.95632      3848.5041     -220.81002      2533.6881      1463.0207      5594.417      -4347.6059     -35.513981      1.0006877      48032.269    
  22840000   221.4572       3804.497      -245.65072      2551.4482      1464.2076      5602.7223     -4393.3737     -36.328839      1.0082048      47674.143    
  22860000   225.61255      3755.721      -262.49645      2537.6084      1480.479       5539.4967     -4364.1243     -36.57729       1.0136943      47415.972    
  22880000   220.08396      3704.0373     -276.03369      2537.535       1414.0986      5593.532      -4394.0206     -32.63155       1.0136073      47420.043    
  22900000   220.65813      3748.883      -251.61645      2549.3736      1449.364       5557.5807     -4381.8082     -35.546938      1.0080003      47683.814    
  22920000   223.31475      3725.5496     -253.80122      2556.2855      1444.8022      5529.4632     -4380.1744     -32.736398      1.0108661      47548.63     
  22940000   219.94212      3797.9417     -187.85162      2534.9715      1459.8918      5511.4773     -4347.8566     -33.979555      1.0087169      47649.938    
  22960000   216.50363      3840.2331     -250.51263      2547.2071      1495.487       5588.201      -4364.1701     -37.558811      1.0080738      47680.34     
  22980000   217.90089      3775.392      -255.85584      2536.4659      1474.6249      5509.5516     -4315.2913     -35.449214      1.0062422      47767.128    
  23000000   219.75164      3802.6471     -232.81371      2540.1726      1470.7798      5515.2074     -4317.7122     -34.293698      1.0082902      47670.105    
  23020000   222.545        3749.91       -235.88026      2535.0403      1394.54        5604.1718     -4375.6042     -33.968345      1.0163405      47292.517    
  23040000   223.6758       3829.21       -205.23315      2536.7225      1491.5937      5561.3069     -4383.5138     -32.902733      1.0082943      47669.909    
  23060000   223.51879      3815.7777     -211.56492      2541.3455      1496.0181      5539.7384     -4374.6842     -36.572616      1.0102028      47579.852    
  23080000   219.0281       3878.5413     -235.26427      2543.5978      1492.4837      5582.5575     -4333.9361     -32.343208      1.0094602      47614.851    
  23100000   222.55624      3778.4372     -274.072        2545.9406      1465.7096      5499.2565     -4283.6957     -36.103307      1.0142297      47390.942    
  23120000   221.0323       3836.1988     -234.2657       2530.5248      1498.5592      5585.8597     -4370.2841     -35.454148      1.0097354      47601.876    
  23140000   216.5274       3766.0017     -202.15113      2537.5971      1468.2579      5508.0497     -4371.8629     -35.1296        1.0124134      47475.961    
  23160000   222.63202      3823.7609     -213.23837      2540.9539      1470.7052      5540.5776     -4345.6472     -30.825551      1.0077417      47696.053    
  23180000   218.22826      3830.172      -222.80794      2541.4705      1471.8655      5564.5671     -4352.6604     -33.503942      1.0133861      47430.393    
  23200000   216.29437      3784.5884     -234.46782      2528.1705      1479.297       5627.9473     -4443.4987     -34.327417      1.010893       47547.365    
  23220000   215.52209      3732.3497     -188.54676      2540.531       1435.1665      5498.4665     -4379.536      -35.054929      1.0101756      47581.131    
  23240000   219.8115       3773.4917     -203.15491      2546.2303      1438.5981      5552.567      -4387.1689     -35.171751      1.0075692      47704.216    
  23260000   223.15157      3821.3287     -261.25345      2547.9154      1480.2161      5612.5902     -4384.4993     -35.518918      1.0183001      47201.507    
  23280000   221.84442      3778.8886     -192.79214      2526.2457      1427.9504      5551.5261     -4359.6054     -36.014205      1.0106633      47558.175    
  23300000   224.52655      3753.4202     -222.44267      2524.1066      1445.5426      5492.5409     -4315.4477     -32.389018      1.0052225      47815.584    
  23320000   218.529        3744.6602     -220.38735      2533.2769      1429.1526      5651.1632     -4474.8386     -35.285049      1.0049892      47826.682    
  23340000   219.4416       3748.1084     -232.90616      2539.3631      1424.901       5532.8128     -4344.0329     -33.69097       1.0075435      47705.434    
  23360000   220.13452      3747.1867     -238.90653      2538.838       1477.6513      5521.6511     -4375.5636     -38.113133      1.0091745      47628.334    
  23380000   219.22534      3773.5681     -229.3724       2532.2205      1439.5259      5535.3537     -4329.3897     -36.435679      1.0078937      47688.858    
  23400000   222.23147      3861.2354     -135.41941      2543.2899      1435.7648      5576.6829     -4387.1262     -33.685196      1.0060396      47776.749    
  23420000   214.08679      3778.3969     -177.54557      2538.6838      1448.6205      5506.5639     -4365.6971     -33.928063      1.0066294      47748.755    
  23440000   221.29265      3836.1118     -245.73603      2547.4268      1447.5966      5610.7621     -4349.8399     -35.853716      1.0100969      47584.838    
  23460000   220.77378      3801.0256     -151.47753      2531.7793      1403.0539      5543.382      -4354.8894     -32.8148        1.0053488      47809.578    
  23480000   221.18364      3787.7995     -251.15501      2539.7119      1447.9123      5537.7698     -4313.1406     -34.898981      1.0083863      47665.563    
  23500000   219.77516      3792.7738     -251.81324      2544.2245      1481.3384      5517.5894     -4325.1461     -35.081506      1.0111481      47535.372    
  23520000   218.70235      3800.4977     -204.06638      2531.3731      1411.3846      5603.5382     -4365.5936     -37.994478      1.0048827      47831.75     
  23540000   220.3339       3838.6768     -222.2317       2533.6718      1496.8152      5481.7967     -4277.1331     -35.947136      1.0090034      47636.41     
  23560000   217.92065      3887.1397     -177.63985      2533.1044      1477.1994      5583.396      -4356.3647     -34.234066      1.0044624      47851.766    
  23580000   217.75078      3830.9925     -222.05496      2531.6085      1462.3715      5559.102      -4329.4132     -32.18593       1.0119534      47497.542    
  23600000   218.38309      3779.6671     -183.09115      2535.8923      1458.0571      5495.5567     -4353.9608     -34.454474      1.005762       47789.932    
  23620000   221.95952      3816.9272     -212.80335      2548.3163      1461.7997      5602.5693     -4407.2377     -37.28273       1.0068604      47737.8      
  23640000   220.79823      3827.9258     -206.67033      2537.0586      1433.6798      5602.8117     -4364.1008     -36.363228      1.0093358      47620.72     
  23660000   222.99833      3774.9422     -169.14683      2542.9248      1428.1313      5460.3424     -4316.8899     -32.21229       1.0087557      47648.107    
  23680000   220.08024      3774.1571     -207.52006      2530.4765      1471.7695      5440.144      -4289.5288     -33.231738      1.0111481      47535.369    
  23700000   218.32636      3758.7293     -230.95813      2534.0088      1465.7995      5513.6732     -4348.4451     -37.19213       1.008223       47673.281    
  23720000   217.26715      3806.4286     -208.13422      2533.6703      1444.5925      5589.7039     -4381.7623     -33.347016      1.0080502      47681.455    
  23740000   222.88468      3804.1829     -260.87913      2543.8869      1479.4027      5548.3391     -4332.533      -35.646015      1.003483       47898.47     
  23760000   219.20188      3787.298      -212.66662      2543.0583      1449.2225      5555.7561     -4374.1567     -35.850867      1.0038771      47879.664    
  23780000   218.29994      3755.9548     -220.72545      2520.2246      1451.592       5529.6743     -4352.0319     -34.494579      1.0114566      47520.87     
  23800000   223.414        3793.7875     -187.09632      2539.3721      1455.8206      5525.6074     -4366.3718     -35.099296      0.99866853     48129.382    
  23820000   219.90816      3782.5651     -199.75194      2532.5893      1469.8717      5495.3042     -4342.0115     -34.852463      1.0053835      47807.928    
  23840000   218.64359      3781.6364     -228.75451      2519.0868      1446.8859      5520.0587     -4303.1873     -34.189316      1.0033945      47902.692    
  23860000   218.09778      3798.3988     -254.53919      2539.5596      1463.0969      5601.3355     -4380.1017     -32.377399      1.0105602      47563.025    
  23880000   220.35995      3738.6942     -262.70281      2532.8378      1442.2625      5512.6067     -4317.4372     -30.512165      1.0050019      47826.077    
  23900000   218.76153      3740.4344     -233.78964      2534.6178      1431.0488      5537.0279     -4356.0021     -34.331072      1.0104097      47570.11     
  23920000   217.97465      3793.9225     -243.24947      2529.5382      1469.7171      5489.4096     -4279.6009     -34.157886      0.99821872     48151.07     
  23940000   222.40292      3751.189      -228.04828      2542.4925      1453.588       5575.2665     -4420.8945     -33.170228      1.0075656      47704.386    
  23960000   219.72977      3816.2125     -186.29638      2523.6689      1484.5162      5521.2007     -4350.0409     -38.386589      1.0052056      47816.385    
  23980000   221.34528      3728.4458     -191.80549      2545.2973      1421.9587      5454.8838     -4328.6288     -35.315859      1.0061179      47773.028    
  24000000   222.99023      3832.7694     -211.53058      2533.7744      1469.693       5558.6901     -4342.9214     -36.489807      1.0140966      47397.162    
  24000080   220.91281      3824.9925     -253.37197      2533.6249      1504.2389      5554.0299     -4340.4111     -34.706748      1.0096614      47605.366    
Loop time of 4168.05 on 24 procs for 1200000 steps with 5009 atoms

Performance: 6.219 ns/day, 3.859 hours/ns, 287.904 timesteps/s, 1.442 Matom-step/s
99.5% CPU use with 24 MPI tasks x no OpenMP threads

MPI task timing breakdown:
Section |  min time  |  avg time  |  max time  |%varavg| %total
---------------------------------------------------------------
Pair    | 2081.7     | 2389.7     | 2722.8     | 406.7 | 57.33
Bond    | 532.75     | 664.97     | 807.46     | 235.9 | 15.95
Kspace  | 516.49     | 905.11     | 1322.9     | 754.4 | 21.72
Neigh   | 26.121     | 26.155     | 26.181     |   0.3 |  0.63
Comm    | 131.53     | 134.53     | 137.09     |  12.4 |  3.23
Output  | 0.0029272  | 0.0032461  | 0.0098567  |   2.4 |  0.00
Modify  | 32.45      | 34.423     | 36.284     |  18.9 |  0.83
Other   |            | 13.2       |            |       |  0.32

Nlocal:        208.708 ave         234 max         185 min
Histogram: 2 1 0 4 7 3 4 1 0 2
Nghost:        5067.08 ave        5139 max        4995 min
Histogram: 1 2 2 1 4 7 5 0 0 2
Neighs:        79717.7 ave       93723 max       67483 min
Histogram: 2 2 4 2 3 2 5 1 2 1

Total # of neighbors = 1913225
Ave neighs/atom = 381.95748
Ave special neighs/atom = 6.0187662
Neighbor list builds = 8554
Dangerous builds = 0
PPPM initialization ...
  using 12-bit tables for long-range coulomb (../kspace.cpp:342)
  G vector (1/distance) = 0.12048922
  grid = 4 4 4
  stencil order = 5
  estimated absolute RMS force accuracy = 0.22778256
  estimated relative force accuracy = 0.00068596041
  using double precision KISS FFT
  3d grid and FFT values/proc = 294 4
Generated 15 of 15 mixed pair_coeff terms from sixthpower/sixthpower mixing rule
Setting up Verlet run ...
  Unit style    : real
  Current step  : 24000080
  Time step     : 0.25
WARNING: Inconsistent image flags (../domain.cpp:815)
Per MPI rank memory allocation (min/avg/max) = 22.24 | 22.28 | 22.64 Mbytes
   Step          Temp          PotEng         E_vdwl         E_coul         E_bond        E_angle        E_dihed        E_impro        Density         Volume    
  24000080   220.91281      3825.1356     -253.37197      2535.7943      1504.2389      5554.0299     -4340.4111     -34.706748      1.0096614      47605.366    
  24020000   200.57595      3435.3035     -233.40082      2529.4292      1306.6702      5375.1708     -4367.9148     -34.103507      1.0052445      47814.536    
  24040000   201.80103      3453.1655     -249.79481      2517.9692      1352.8508      5436.3417     -4430.1151     -33.437475      1.0123578      47478.569    
  24060000   205.3333       3512.6256     -247.71591      2535.7042      1374.288       5405.6977     -4382.7074     -32.589136      1.0009111      48021.547    
  24080000   200.01402      3508.1495     -194.75547      2527.3445      1340.2243      5460.895      -4451.3883     -33.613978      1.01101        47541.865    
  24100000   196.29798      3483.1313     -245.21614      2527.9266      1348.9273      5441.0424     -4416.5263     -32.650935      1.0130642      47445.461    
  24120000   201.90938      3480.3878     -254.78169      2544.6003      1335.8115      5408.3513     -4380.0128     -33.011972      1.0140806      47397.908    
  24140000   198.72796      3502.1809     -234.96332      2549.0676      1364.448       5391.3463     -4392.5888     -34.915882      1.0123642      47478.271    
  24160000   200.09902      3512.07       -231.84656      2541.0095      1363.0347      5411.1567     -4400.073      -31.193644      1.0082683      47671.139    
  24180000   201.79585      3494.991      -267.50816      2526.7995      1363.8861      5406.5466     -4357.8202     -36.581245      1.0078723      47689.869    
  24200000   202.55035      3479.7416     -264.69027      2539.6632      1328.169       5471.7645     -4419.0056     -35.949368      1.0114009      47523.49     
  24220000   201.0557       3455.7239     -257.49493      2532.8929      1336.4698      5456.2396     -4436.5436     -35.348298      1.0160126      47307.781    
  24240000   201.21678      3474.2511     -252.7511       2541.7636      1348.122       5432.1334     -4420.9598     -33.667654      1.0046673      47842.006    
  24260000   200.76453      3501.6424     -227.78568      2532.4136      1371.608       5423.5826     -4424.1367     -33.607847      1.014736       47367.295    
  24280000   203.60318      3457.7724     -234.67037      2533.5048      1338.3859      5446.0732     -4451.3167     -34.03495       1.0104907      47566.297    
  24300000   203.79758      3485.5513     -224.4552       2541.1573      1318.8333      5442.3002     -4416.0411     -35.897984      1.010226       47578.761    
  24320000   201.28785      3412.8814     -241.35296      2537.5196      1331.9785      5315.3219     -4356.6888     -33.330072      1.0065472      47752.655    
  24340000   202.18974      3504.9299     -279.62691      2544.5338      1388.2839      5413.706      -4386.7284     -34.880657      1.0132523      47436.654    
  24360000   205.63928      3546.7943     -258.77964      2537.6424      1379.6152      5451.5561     -4389.8417     -33.433639      1.0141508      47394.628    
  24380000   203.38644      3455.9209     -279.78629      2544.5545      1370.8404      5387.0397     -4392.232      -34.386495      1.0149576      47356.953    
  24400000   197.83629      3438.402      -252.13107      2522.426       1323.7312      5449.4724     -4429.8395     -35.154087      1.0154126      47335.734    
  24420000   195.05533      3460.2757     -222.75872      2529.6485      1302.1108      5429.9017     -4402.8585     -35.212753      1.0122939      47481.567    
  24440000   199.03888      3501.9221     -280.59409      2524.5068      1401.0882      5437.8949     -4403.3394     -37.140318      1.012231       47484.514    
  24460000   200.16381      3472.7547     -248.37254      2540.5451      1369.1816      5429.589      -4444.3062     -33.451941      1.011762       47506.526    
  24480000   200.30705      3401.5042     -273.52004      2527.1605      1298.9006      5432.1375     -4406.9717     -35.930679      1.0162786      47295.397    
  24500000   201.25496      3453.3106     -263.99582      2524.6821      1346.8718      5433.6776     -4413.6912     -33.906112      1.0170755      47258.338    
  24520000   198.85734      3460.298      -249.26021      2532.4348      1309.384       5385.0888     -4344.0634     -32.724874      1.0082671      47671.196    
  24540000   198.53928      3433.6079     -216.34658      2532.1757      1288.6485      5443.9193     -4440.187      -33.99205       1.0159941      47308.641    
  24560000   201.98352      3506.977      -245.46403      2544.132       1345.7103      5447.52       -4407.8275     -36.532135      1.0106616      47558.254    
  24580000   201.74995      3534.4165     -261.35507      2546.7165      1376.5068      5374.7543     -4326.5614     -35.092288      1.0093968      47617.846    
  24600000   201.90688      3470.792      -267.37235      2536.8486      1345.3599      5485.195      -4456.3275     -32.699738      1.0113524      47525.769    
  24620000   201.47994      3434.5483     -297.7483       2518.5101      1341.5611      5422.1307     -4375.1822     -34.230378      1.0158522      47315.248    
  24640000   200.35706      3455.8076     -241.63754      2529.8698      1353.2431      5393.7102     -4403.5999     -35.636132      1.0114882      47519.386    
  24660000   198.89239      3495.4367     -247.31031      2529.546       1326.872       5432.9922     -4372.8759     -33.019347      1.0182403      47204.279    
  24680000   196.70866      3476.1828     -287.23436      2542.1333      1349.8242      5442.2993     -4394.3514     -36.055081      1.0088016      47645.939    
  24700000   200.12349      3539.9746     -239.96483      2538.8961      1342.0161      5502.8802     -4430.2182     -33.652506      1.0111693      47534.372    
  24720000   199.40954      3450.8893     -286.35109      2538.3057      1356.8611      5414.5041     -4397.4573     -34.487742      1.0110037      47542.159    
  24740000   200.06388      3461.8141     -241.58848      2539.8914      1366.21        5367.2825     -4396.0214     -33.52804       1.0141238      47395.891    
  24760000   193.45828      3476.1874     -263.63947      2538.53        1339.8632      5424.5521     -4389.5698     -33.272572      1.0171805      47253.463    
