LAMMPS data file via write_data, version 22 Dec 2022, timestep = 300000

5009 atoms
6 atom types
5137 bonds
6 bond types
10125 angles
12 angle types
14559 dihedrals
12 dihedral types
6480 impropers
12 improper types

4.940100696680943 42.50663978332165 xlo xhi
4.940100696680943 42.50663978332165 ylo yhi
4.940100696680943 42.50663978332165 zlo zhi

Masses

1 12.01115
2 1.00797
3 1.00797
4 15.9994
5 15.9994
6 15.9994

Pair Coeffs # lj/class2/coul/long

1 0.054 4.01
2 0.02 2.995
3 0.02 2.995
4 0.24 3.535
5 0.24 3.535
6 0.24 3.535

Bond Coeffs # class2

1 1.53 299.67 -501.77 679.81
2 1.101 345 -691.89 844.6
3 1.42 400.395 -835.195 1313.01
4 1.42 400.395 -835.195 1313.01
5 1.42 400.395 -835.195 1313.01
6 0.96 493.848 0 0

Angle Coeffs # class2

1 112.67 39.516 -7.443 -9.5583
2 110.77 41.453 -10.604 5.129
3 111.27 54.5381 -8.3642 -13.0838
4 111.27 54.5381 -8.3642 -13.0838
5 111.27 54.5381 -8.3642 -13.0838
6 104.5 35.7454 -10.0067 -6.2729
7 104.5 35.7454 -10.0067 -6.2729
8 109 58.5 0 0
9 107.66 39.641 -12.921 -2.4318
10 108.728 58.5446 -10.8088 -12.4006
11 108.728 58.5446 -10.8088 -12.4006
12 108.728 58.5446 -10.8088 -12.4006

BondBond Coeffs

1 0 1.53 1.53
2 3.3872 1.53 1.101
3 11.4318 1.53 1.42
4 11.4318 1.53 1.42
5 11.4318 1.53 1.42
6 -7.1131 1.42 1.42
7 -7.1131 1.42 1.42
8 0 1.42 0.96
9 5.3316 1.101 1.101
10 23.1979 1.101 1.42
11 23.1979 1.101 1.42
12 23.1979 1.101 1.42

BondAngle Coeffs

1 8.016 8.016 1.53 1.53
2 20.754 11.421 1.53 1.101
3 2.6868 20.4033 1.53 1.42
4 2.6868 20.4033 1.53 1.42
5 2.6868 20.4033 1.53 1.42
6 -2.8112 -2.8112 1.42 1.42
7 -2.8112 -2.8112 1.42 1.42
8 0 0 1.42 0.96
9 18.103 18.103 1.101 1.101
10 4.6189 55.327 1.101 1.42
11 4.6189 55.327 1.101 1.42
12 4.6189 55.327 1.101 1.42

Dihedral Coeffs # class2

1 0 0 0.0514 0 -0.143 0
2 0 0 0.0316 0 -0.1681 0
3 0.7137 0 0.266 0 -0.2545 0
4 0.7137 0 0.266 0 -0.2545 0
5 0.7137 0 0.266 0 -0.2545 0
6 -0.5203 0 -0.3028 0 -0.345 0
7 -0.5203 0 -0.3028 0 -0.345 0
8 0 0 0 0 0.13 180
9 0.5302 0 0 0 -0.3966 0
10 0.5302 0 0 0 -0.3966 0
11 0 0 0 0 0.13 180
12 -0.1432 0 0.0617 0 -0.1083 0

AngleAngleTorsion Coeffs

1 -22.045 112.67 112.67
2 -16.164 112.67 110.77
3 -29.042 112.67 111.27
4 -29.042 112.67 111.27
5 -29.042 112.67 111.27
6 -19.0059 111.27 104.5
7 -19.0059 111.27 104.5
8 0 111.27 109
9 -16.4438 104.5 108.728
10 -16.4438 104.5 108.728
11 0 109 108.728
12 -12.564 110.77 110.77

EndBondTorsion Coeffs

1 -0.0732 0 0 -0.0732 0 0 1.53 1.53
2 0.2486 0.2422 -0.0925 0.0814 0.0591 0.2219 1.53 1.101
3 -0.319 0.4411 -0.7174 1.1538 0.8409 -0.9138 1.53 1.42
4 -0.319 0.4411 -0.7174 1.1538 0.8409 -0.9138 1.53 1.42
5 -0.319 0.4411 -0.7174 1.1538 0.8409 -0.9138 1.53 1.42
6 -0.2456 1.0517 -0.7795 0.4741 1.2635 0.5576 1.53 1.42
7 -0.2456 1.0517 -0.7795 0.4741 1.2635 0.5576 1.53 1.42
8 0 0 0 0 0 0 1.53 0.96
9 -0.162 0.1564 -1.1408 -0.6054 1.3339 0.9648 1.42 1.101
10 -0.162 0.1564 -1.1408 -0.6054 1.3339 0.9648 1.42 1.101
11 0 0 0 0 0 0 0.96 1.101
12 0.213 0.312 0.0777 0.213 0.312 0.0777 1.101 1.101

MiddleBondTorsion Coeffs

1 -17.787 -7.1877 0 1.53
2 -14.879 -3.6581 -0.3138 1.53
3 -21.8842 -7.6764 -0.6868 1.53
4 -21.8842 -7.6764 -0.6868 1.53
5 -21.8842 -7.6764 -0.6868 1.53
6 -5.9288 -2.7007 -0.3175 1.42
7 -5.9288 -2.7007 -0.3175 1.42
8 0 0 0 1.42
9 -6.8007 -4.6546 -1.4101 1.42
10 -6.8007 -4.6546 -1.4101 1.42
11 0 0 0 1.42
12 -14.261 -0.5322 -0.4864 1.53

BondBond13 Coeffs

1 0 1.53 1.53
2 0 1.53 1.101
3 0 1.53 1.42
4 0 1.53 1.42
5 0 1.53 1.42
6 0 1.53 1.42
7 0 1.53 1.42
8 0 1.53 0.96
9 0 1.42 1.101
10 0 1.42 1.101
11 0 0.96 1.101
12 0 1.101 1.101

AngleTorsion Coeffs

1 0.3886 -0.3139 0.1389 0.3886 -0.3139 0.1389 112.67 112.67
2 -0.2454 0 -0.1136 0.3113 0.4516 -0.1988 112.67 110.77
3 0.5623 -0.3041 -0.4015 0.9672 -0.7566 -1.2331 112.67 111.27
4 0.5623 -0.3041 -0.4015 0.9672 -0.7566 -1.2331 112.67 111.27
5 0.5623 -0.3041 -0.4015 0.9672 -0.7566 -1.2331 112.67 111.27
6 -2.7466 1.4877 -0.8955 0.5676 0.945 0.0703 111.27 104.5
7 -2.7466 1.4877 -0.8955 0.5676 0.945 0.0703 111.27 104.5
8 0 0 0 0 0 0 111.27 109
9 -0.7777 0.434 -0.6653 -1.8234 1.6393 0.5144 104.5 108.728
10 -0.7777 0.434 -0.6653 -1.8234 1.6393 0.5144 104.5 108.728
11 0 0 0 0 0 0 109 108.728
12 -0.8085 0.5569 -0.2466 -0.8085 0.5569 -0.2466 110.77 110.77

Improper Coeffs # class2

1 0 0
2 0 0
3 0 0
4 0 0
5 0 0
6 0 0
7 0 0
8 0 0
9 0 0
10 0 0
11 0 0
12 0 0

AngleAngle Coeffs

1 -0.1729 -0.1729 -0.1729 112.67 112.67 112.67
2 -1.3199 -1.3199 0.1184 112.67 110.77 110.77
3 0.2738 -0.4825 0.2738 110.77 110.77 107.66
4 3.9177 2.5926 0.1689 110.77 111.27 108.728
5 3.9177 2.5926 0.1689 110.77 111.27 108.728
6 0.1689 2.5926 3.9177 111.27 110.77 108.728
7 0.1689 2.5926 3.9177 111.27 110.77 108.728
8 0.1689 2.5926 3.9177 111.27 110.77 108.728
9 -0.3157 -0.3157 -0.3157 107.66 107.66 107.66
10 2.4259 2.4259 2.1283 107.66 108.728 108.728
11 2.4259 2.4259 2.1283 107.66 108.728 108.728
12 2.4259 2.4259 2.1283 107.66 108.728 108.728

Atoms # full

1903 1 1 0.027 9.313633670876925 8.315582745275519 8.988979954178305 -1 3 5
1904 1 3 0.053 9.399285927895594 7.853158264683973 9.965056158259392 -1 3 5
1907 1 1 0.027 11.82186951002269 8.251634433686087 8.99426387129486 -1 3 5
1895 1 1 0 8.075685290673174 9.316685787350627 9.14611519474646 -1 3 5
1906 1 5 -0.266 10.516578120504903 8.939851446672947 8.756160117647637 -1 3 5
1910 1 1 0 12.936116471265176 9.214570666205283 8.57410957531282 -1 3 5
1892 1 1 -0.106 8.328925437737428 10.433217999536456 10.203913049824719 -1 3 5
1908 1 3 0.053 11.87046764806183 7.370876607108379 8.375159316702447 -1 3 5
1905 1 3 0.053 9.114381968460194 7.504794282860853 8.241579149686785 -1 3 5
1918 1 1 -0.106 12.785107070380418 9.56541665926191 6.955443282030619 -1 3 5
1902 1 3 0.053 7.860967995003321 9.268970019024295 6.948869944135044 -1 3 5
1921 1 1 -0.159 13.044480146032832 8.485532910888008 5.9179044599867785 -1 3 5
1900 1 1 0.027 7.842229171017258 10.072785405934168 7.770708848920753 -1 3 5
1901 1 3 0.053 8.705543128300242 10.724160822662686 7.531270518545032 -1 3 5
1896 1 1 0.027 6.928135589920228 8.444281337764714 9.534396083700958 -1 3 5
2010 1 5 -0.266 6.73382647023745 7.5245864257153166 8.498746755077477 0 3 5
3319 1 3 0.053 14.21412381018914 12.356820340727866 16.788116593920854 -1 3 5
1920 1 3 0.053 13.431337804959739 10.42554739327688 6.906394825838321 -1 3 5
1923 1 3 0.053 12.672024793592357 7.466183349074139 6.229120508509566 -1 3 5
3308 1 3 0.053 10.46022178324047 5.968269057151798 12.533099322744608 -1 3 5
2015 1 3 0.053 6.881947254923388 5.902035923944521 5.986176144310577 0 3 5
1616 1 3 0.053 7.310083425429752 7.943401531502082 10.477314896502179 -1 3 5
1909 1 3 0.053 11.927919629421872 7.789379446056195 10.009211328647538 -1 3 5
4443 1 3 0.053 10.565319847446514 5.014068206096169 10.164563835621761 -1 3 5
1919 1 3 0.053 11.825384318695557 10.087227318923656 6.797038393868988 -1 3 5
1915 1 1 0.027 12.809481239259759 10.183937477835382 9.756782673699435 -1 3 5
1899 1 5 -0.266 6.745321620277927 10.921995720320904 7.648191097814481 -1 3 5
2014 1 1 0.027 5.971954363784894 5.358335020686708 6.363996516331458 0 3 5
1922 1 3 0.053 12.42568772047317 8.776470256493779 5.05405468394222 -1 3 5
1535 1 3 0.053 9.163768210729465 23.676966017904768 16.858079937511253 -1 2 5
3318 1 3 0.053 13.924224070413953 16.40964671206273 15.258851630139432 -1 3 5
1898 1 3 0.053 6.0706469524144095 9.027802439264372 9.949795999283028 -1 3 5
1487 1 3 0.053 12.990197344010586 22.591967687092286 12.483667702099424 -1 3 5
3300 1 3 0.053 12.793451031190774 6.595651772207992 15.236133473443877 -1 3 5
1893 1 3 0.053 9.14163506091241 11.105838905655435 9.934994300715541 -1 3 5
1916 1 3 0.053 12.194379145390581 9.673334233887456 10.59888232178539 -1 3 5
1157 1 3 0.053 6.8262437799827875 11.489462027598096 5.612871811109628 -1 2 5
1611 1 1 0.027 6.438043426911816 14.099061660248775 5.487730798868402 -1 3 5
4451 1 3 0.053 12.538677661991976 5.10247057304699 7.366495120383883 -1 3 5
1436 1 3 0.053 11.545913463679971 13.963582793935089 16.98642629552299 -1 2 5
1894 1 3 0.053 7.409335730365903 11.167512021947855 10.098940733375828 -1 3 5
1924 1 3 0.053 14.074520274538592 8.479320078146403 5.476259663414158 -1 3 5
1152 1 1 -0.106 9.432165411521442 16.039057233303865 6.745056440413239 -1 2 5
1614 1 1 0 6.120802323563597 13.15674774064533 6.7742665420861 -1 3 5
1615 1 1 0.027 7.0197617469702465 11.95731560475811 6.631120120952571 -1 3 5
1162 1 3 0.053 10.256535080262317 13.94946791860411 8.43305708765589 -1 2 5
1620 1 3 0.053 6.201305799552265 13.456302164701647 9.028713266194313 -1 3 5
1159 1 5 -0.266 11.927746002384517 15.195098053946372 8.147328270446025 -1 2 5
1155 1 1 0 9.607942165867183 15.9502652011463 8.288982479884044 -1 2 5
1505 1 3 0.053 13.234486762971821 14.371287876269692 9.578135227931075 -1 3 5
1156 1 1 0.027 8.202553633523488 15.453394908130853 8.78212130435283 -1 2 5
2319 1 3 0.053 8.247841251782322 15.240034203604878 9.829879752115662 -1 2 5
1161 1 3 0.053 10.812395388979768 14.835919055500476 9.763199598523801 -1 2 5
1160 1 1 0.027 10.662893074667563 14.960845720781197 8.642251054756182 -1 2 5
1619 1 1 0.027 6.422750990823931 13.927956009874803 8.07301034613275 -1 3 5
2318 1 1 0.027 13.067711962731968 14.421396133460513 8.509440887814465 -1 2 5
1618 1 5 -0.266 7.8532497913427175 14.239972072363576 8.1371222288542 -1 3 5
1158 1 3 0.053 7.327078111888879 16.228097642897474 8.646388598243743 -1 2 5
1164 1 3 0.053 10.21173505333471 17.050147158370173 10.100414639067601 -1 2 5
1617 1 3 0.053 8.033891925820166 12.402194268836812 6.566063555079117 -1 3 5
2320 1 3 0.053 12.91393115390044 13.439215930555973 8.127567747243397 -1 2 5
1621 1 3 0.053 5.909689606681255 14.861219878126422 7.9853191394703185 -1 3 5
1163 1 1 0.027 10.050946201066672 17.334819253821845 8.965755162403475 -1 2 5
1154 1 3 0.053 8.583950232713047 16.81294751997084 6.419688695927115 -1 2 5
1153 1 3 0.053 9.168830842106665 15.063540408404252 6.4270428668352855 -1 2 5
1148 1 1 -0.159 10.621739151471129 16.43928806904883 5.883364918256155 -1 2 5
1149 1 3 0.053 11.484111212267642 15.77355131169955 5.893958633031862 -1 2 5
303 1 3 0.053 6.887413705122716 17.328329278494117 11.08830168792533 -1 2 5
1431 1 3 0.053 13.192387162635667 17.883390615198238 10.55356598760556 -1 2 5
1598 1 3 0.053 6.6880858018172455 17.8248131383114 4.993297442750145 -1 3 5
299 1 3 0.053 5.753729881531637 15.184649836438119 10.679448031973381 -1 2 5
2328 1 1 -0.159 14.018372830424106 13.848734980076436 5.533963540933543 -1 2 5
2323 1 3 0.053 13.36759021234272 17.12980031454696 7.946823414511702 -1 2 5
315 1 5 -0.266 5.928136132210704 20.4440152400096 13.722414587611832 -1 2 5
1417 1 3 0.053 6.592569722421588 14.249516761747849 16.849998950161126 -1 2 5
1520 1 3 0.053 9.907364025783469 21.28722776201172 12.419919687036362 -1 2 5
1409 1 3 0.053 5.826374475745333 10.84096175149092 15.55154428468663 -1 2 5
1528 1 3 0.053 8.681011463382674 21.523242994375515 17.19788204719991 -1 2 5
1150 1 3 0.053 11.044293483362527 17.51036281045832 6.043838854864613 -1 2 5
1491 1 3 0.053 13.932478235547258 22.43478762238941 8.481784348758051 -1 3 5
1165 1 3 0.053 10.940882291605151 17.818484755494516 8.55893635152792 -1 2 5
1176 1 3 0.053 8.436210892823153 19.629391731758403 6.4489448142757855 -1 2 5
1184 1 3 0.053 6.294665875146298 21.684771911879846 9.387972189136233 -1 2 5
1181 1 1 -0.159 7.05166270290184 22.479899684880497 9.12042155139844 -1 2 5
1169 1 3 0.053 8.058045719690497 19.693639913407328 9.698192751804243 -1 2 5
1171 1 1 0.027 9.973563006907643 21.255451280626918 7.391522910365899 -1 2 5
1178 1 1 -0.106 8.605156199719534 22.104529248663148 9.144461057128899 -1 2 5
1170 1 1 0 8.85857507766412 20.818034851215288 8.328051512530074 -1 2 5
1494 1 3 0.053 12.604646422964587 21.18807434246932 8.96911366603084 -1 3 5
1167 1 1 0.027 8.986271475414117 19.564834964882266 9.2198940534828 -1 2 5
1166 1 5 -0.266 9.036635424434396 18.17865030292825 8.713641359406079 -1 2 5
1168 1 3 0.053 9.692242367323868 19.774702401385134 10.093491089659015 -1 2 5
1493 1 1 0.027 12.495144584302064 21.752512274513695 9.836184848894813 -1 3 5
1495 1 3 0.053 11.580836190887272 21.511582298556608 10.375543535253417 -1 3 5
1179 1 3 0.053 9.269780007383225 22.022480030943527 10.020143517009597 -1 2 5
1180 1 3 0.053 9.09766693969324 23.048354937035676 8.780020563797505 -1 2 5
1492 1 4 -0.266 12.485814624574875 23.164827478074535 9.553992117055415 -1 3 5
1175 1 1 0.027 8.137257619796502 20.637624420616362 6.933852100840938 -1 2 5
1172 1 3 0.053 10.734098230937718 20.41505262205331 7.116806890753964 -1 2 5
1173 1 3 0.053 10.515875592602047 22.199393354410713 7.518292364524015 -1 2 5
1177 1 3 0.053 7.033552485262358 20.78434973175078 6.679525486202654 -1 2 5
1183 1 3 0.053 6.666296716543476 22.84275528686783 8.093414966503484 -1 2 5
1182 1 3 0.053 6.85327084441574 23.38309622440256 9.699043633199093 -1 2 5
1489 1 1 0.027 13.819405204783793 22.98511448802292 9.35249212282522 -1 3 5
1174 1 4 -0.266 9.044558524537809 21.53632963851674 6.341395487424438 -1 2 5
2838 1 3 0.053 13.452855496978462 18.347738995580702 5.951381984851363 -1 2 6
1488 1 1 0 13.860739455426359 21.902999089136884 10.532178236331823 -1 3 5
1533 1 1 0.027 10.035147656694622 23.57157832057192 16.08466807303583 -1 2 5
1610 1 5 -0.266 5.458409887456843 14.973805361147061 5.069078319160787 -1 3 5
1504 1 1 0.027 13.830382859689646 16.952894684013884 10.722485674385393 -1 3 5
1407 1 1 -0.159 5.350036752057637 11.754991875208393 15.150358239592025 -1 2 5
1418 1 4 -0.266 7.38727803309368 12.328452352319712 17.120313244983222 -1 2 5
1917 1 3 0.053 12.388677654081716 11.112732491389743 9.642839841005955 -1 3 5
3299 1 3 0.053 12.248904827735819 5.348459907548704 14.050637272120158 -1 3 5
3314 1 3 0.053 11.247993647869606 10.613084036759457 16.046745557932077 -1 3 5
1891 1 3 0.053 8.025482214564027 9.215097234239812 12.134929415808429 -1 3 5
1888 1 1 -0.159 8.719702248038601 9.989372659188918 11.66055050702122 -1 3 5
3307 1 3 0.053 10.633797917519324 7.783492428817388 12.6173306215321 -1 3 5
3306 1 1 0.027 10.20902349882006 6.898220963407837 13.2092990080413 -1 3 5
3325 1 3 0.053 13.841461664426609 9.795252980166797 13.615519420711502 -1 3 5
3304 1 3 0.053 8.525433384930167 6.882211203029213 15.590610752357048 -1 3 5
3311 1 3 0.053 9.724143076363646 8.881011768056077 15.217773213874992 -1 3 5
3309 1 1 0.027 10.721274722683756 8.292115926017175 15.298181665081627 -1 3 5
3301 1 1 0 10.628573989051482 6.791826315765095 14.67602197540244 -1 3 5
3312 1 5 -0.266 11.753904373412993 9.083279044988178 14.599210044526899 -1 3 5
3313 1 1 0.027 11.840937560315275 10.381894295053998 15.171329535684437 -1 3 5
3298 1 1 -0.106 11.919654652464086 5.915865051778755 14.892005103200912 -1 3 5
3310 1 3 0.053 11.083570398972112 8.294107473412112 16.33228857060221 -1 3 5
3316 1 1 0 13.240952364705915 10.65628405704482 15.591415743044951 -1 3 5
3324 1 1 -0.106 14.041972402377363 10.799472226459539 14.127461703393466 -1 3 5
3302 1 1 0.027 9.2103940761717 6.510405981870724 14.831578414093302 -1 3 5
3305 1 4 -0.266 8.795729407793702 7.283621949530517 13.62989258921897 -1 3 5
3315 1 3 0.053 11.6315096934247 11.243698406274028 14.456932852496806 -1 3 5
3326 1 3 0.053 13.605955372518439 11.536801986377515 13.376730809584808 -1 3 5
3321 1 1 0.027 13.769479810513912 9.51729024526843 16.47579236094053 -1 3 5
3323 1 3 0.053 13.972025204227528 8.64926367065897 15.789196467512499 -1 3 5
1420 1 3 0.053 8.122217805058458 10.878156425498496 16.009092700993804 -1 2 5
2326 1 3 0.053 13.490365240781752 15.854343580110543 6.043732107058395 -1 2 5
1889 1 3 0.053 8.817556713275234 10.848022903060333 12.25179021101964 -1 3 5
2836 1 1 0.027 14.293001798804362 18.77302615191665 5.444720820320912 -1 2 6
1421 1 3 0.053 9.318355246596523 12.134144525622482 16.52832953933318 -1 2 5
876 1 3 0.053 12.581854439155217 11.87983557573313 17.31704825671293 -1 3 4
1506 1 3 0.053 13.3183562551287 16.01190122050925 11.043373669777358 -1 3 5
1416 1 3 0.053 8.285544607644894 14.358968068235361 17.05609093266338 -1 2 5
298 1 3 0.053 5.157131527503679 15.08456723723451 12.413919995965841 -1 2 5
1437 1 1 -0.106 11.514758381291939 16.385157818454022 16.2603163567477 -1 2 5
1914 1 4 -0.266 14.183050372667239 10.017377755194557 10.093998711101824 -1 3 5
1890 1 3 0.053 9.7523462108503 9.491854036143508 11.67314363499168 -1 3 5
301 1 1 -0.106 6.039779986415943 17.026766473933606 11.749548800022488 -1 2 5
297 1 1 -0.159 5.992809086976667 15.533794136484481 11.745675468316318 -1 2 5
2331 1 3 0.053 12.99650061959684 13.539603722757173 5.643706041539431 -1 2 5
1439 1 3 0.053 10.657880625350243 16.06348158948208 16.852172927738025 -1 2 5
1432 1 3 0.053 13.64614700923573 15.008659976341653 14.175332385153613 -1 2 5
1612 1 3 0.053 7.383514798937382 14.585504015652079 5.706785100858083 -1 3 5
1413 1 3 0.053 6.071709800480604 13.513883443683808 13.86784120301076 -1 2 5
1423 1 3 0.053 8.819167910731714 13.452700777356412 13.280885984589444 -1 2 5
1419 1 1 0.027 8.330059260984019 11.953961557766617 16.072952186276193 -1 2 5
1507 1 5 -0.266 12.798950944191256 16.60259044432543 13.392199956376796 -1 3 5
1428 1 3 0.053 10.86653924405956 15.310287511688092 13.418368336489234 -1 2 5
1424 1 3 0.053 7.897328018307329 14.846998689316717 13.75485542572322 -1 2 5
1427 1 3 0.053 11.218950887964887 13.68198526352611 13.97892516580467 -1 2 5
1426 1 1 0.027 10.952041788358803 14.720931586929538 14.349345541070221 -1 2 5
1430 1 1 0.027 13.196803929753816 15.8765823621122 14.626299833022292 -1 2 5
1422 1 1 0.027 8.558523687247384 14.023098762039078 14.192977758159895 -1 2 5
1414 1 1 0 7.794047105971821 13.089630862848484 15.123131621899319 -1 2 5
1425 1 5 -0.266 9.552576065370243 14.706743209236883 14.898657175061848 -1 2 5
1434 1 1 0.027 12.444650850427763 14.153048156525095 16.351388323554737 -1 2 5
1429 1 1 0 12.000081481356634 15.236395887399501 15.32642490012538 -1 2 5
1433 1 5 -0.266 12.79525579595653 12.98249336371983 15.623485085623466 -1 2 5
3317 1 1 0.027 13.301887300128115 11.973931417977285 16.443138598314746 -1 3 5
1415 1 1 0.027 7.473137464512218 13.634425159634777 16.627602007373902 -1 2 5
313 1 3 0.053 5.260197162143211 19.57849356279251 12.084116949999714 -1 2 5
1411 1 1 -0.106 6.450948935384801 12.609297925483768 14.414726311364848 -1 2 5
1412 1 3 0.053 6.628532502498546 11.79210095184959 13.554981825396496 -1 2 5
1440 1 1 -0.159 11.17307419186093 17.720928646433144 15.684792911482443 -1 2 5
300 1 3 0.053 6.977110267566202 15.106032629641001 11.87925166275189 -1 2 5
2011 1 1 0.027 5.5476999947341605 6.7534605953000595 8.550981451838387 0 3 5
1508 1 1 0.027 13.620549491797403 17.757578346980825 13.04906990655863 -1 3 5
2012 1 3 0.053 5.851438655317438 5.875397633820407 9.107969170276851 0 3 5
324 1 1 0.027 6.679921780540062 22.049957729337034 15.744759885161944 -1 2 5
1443 1 3 0.053 11.382218945068939 18.510774495597577 16.414255438170446 -1 2 5
1442 1 3 0.053 10.127334016765888 17.860550867667037 15.481782616323267 -1 2 5
1438 1 3 0.053 12.281106473575267 16.46649210553135 17.016376907918932 -1 2 5
1435 1 3 0.053 13.303604229395793 14.496916507703475 16.993644990645286 -1 2 5
326 1 3 0.053 6.592368406562301 22.714371130426436 16.60885211863285 -1 2 5
318 1 3 0.053 5.24264074327719 21.975984246079744 12.635250081034492 -1 2 5
323 1 5 -0.266 7.992207377416195 21.90021890523157 15.194100024663344 -1 2 5
1485 1 1 -0.106 13.926917637038397 22.56421110005771 11.927686862479648 -1 3 5
1897 1 3 0.053 5.5897635678517865 7.907339517090126 5.897923187545491 -1 3 5
311 1 3 0.053 7.747867817285952 18.239844235178857 14.729643589123107 -1 2 5
1441 1 3 0.053 11.700869214586323 17.894099304635354 14.716805905140088 -1 2 5
4327 1 3 0.053 6.897943759696477 17.983318635986258 16.927378944184575 -1 2 4
3303 1 3 0.053 8.72367182764767 5.502424981291199 14.667512693675524 -1 3 5
3688 1 3 0.053 8.904154726997751 20.19772697261636 16.030379171282448 -1 2 4
304 1 1 0 6.188278489491214 17.96673873423641 13.047661691362551 -1 2 5
1532 1 3 0.053 11.336040896446594 20.31677494466321 16.72178110839669 -1 2 5
317 1 3 0.053 6.892674881703101 22.122744538066193 12.72708124959437 -1 2 5
1524 1 3 0.053 10.876765193628977 20.29940321789479 14.414750256327833 -1 2 5
1509 1 3 0.053 14.086775000698891 18.12733581297401 13.924225103657271 -1 3 5
306 1 3 0.053 5.428507970739631 18.216115067611575 15.13935167503624 -1 2 5
312 1 1 0.027 6.1825606658025904 19.472278182076757 12.70031022833371 -1 2 5
305 1 1 0.027 5.390508530070524 17.56666679329475 14.289931259420241 -1 2 5
1525 1 1 0 10.268963302225428 21.970572599153975 15.933045780342324 -1 2 5
319 1 1 0 5.81724277207565 22.67391047455217 14.644101657258478 -1 2 5
325 1 3 0.053 6.196887661993944 21.07767412257606 15.960225771629762 -1 2 5
1521 1 3 0.053 9.232435623486209 22.659103449111058 13.364591942368863 -1 2 5
1530 1 1 0.027 11.220658596015282 21.31727316574961 17.002490074982674 -1 2 5
1519 1 3 0.053 10.944313717176655 22.83876814799075 12.715617589592263 -1 2 5
1510 1 3 0.053 13.0665077769473 18.569413139045494 12.682034102611176 -1 3 5
1518 1 1 -0.159 10.167970055102593 22.01039565632776 13.159880372502794 -1 2 5
308 1 4 -0.266 6.404880084111991 16.61490804674247 14.692597887657744 -1 2 5
314 1 3 0.053 7.147894975558778 19.820168743888335 12.223284587413936 -1 2 5
309 1 1 0.027 7.315927946257823 17.454528597248157 13.928422975761888 -1 2 5
1526 1 1 0.027 8.879900865361947 21.34349764769244 16.138264249256217 -1 2 5
1522 1 1 -0.106 10.800832691885454 21.379600622614305 14.505400345128386 -1 2 5
316 1 1 0.027 6.075202761704228 21.80537446884389 13.364320033393074 -1 2 5
1531 1 3 0.053 12.179043061525796 21.783659620233855 16.82878894006374 -1 2 5
310 1 3 0.053 8.256487072330845 17.04619434000422 13.503471133481751 -1 2 5
1523 1 3 0.053 11.835612458338009 21.752324744404067 14.462647762037603 -1 2 5
2325 1 1 -0.106 14.22555934342366 15.140172194716927 6.310515228606141 -1 2 5
2322 1 1 0.027 14.24348014371892 16.564288482350314 8.271916327203451 -1 2 5
2317 1 1 0 14.307206125490625 15.10527011908585 7.817238238059 -1 2 5
2006 1 1 0 4.953827767844045 6.197951597012429 7.209430882803135 0 3 5
302 1 3 0.053 5.074064167663508 17.284026288800383 11.164565537043018 -1 2 5
1236 1 3 0.053 8.927823350518214 5.853749730426384 5.150575976148396 -1 3 5
882 1 1 -0.106 11.011919613810631 7.6042013092976735 19.311116174993657 -1 3 4
886 1 3 0.053 9.472259235930284 8.818921915133188 20.188503902939 -1 3 4
885 1 1 -0.159 9.664304903222376 7.731605707599217 20.174824871870705 -1 3 4
874 1 1 0 12.319739870669142 8.274800432289236 19.67205020751519 -1 3 4
887 1 3 0.053 9.888668491036917 7.385648611912684 21.196442749869004 -1 3 4
888 1 3 0.053 8.804297360772344 7.253526059876505 19.77369328453682 -1 3 4
881 1 3 0.053 11.678332359358867 9.59349575450641 21.233065752996307 -1 3 4
879 1 1 0.027 12.202316840277685 9.66739683253278 20.2496048078892 -1 3 4
880 1 3 0.053 11.59662262049713 10.32346354724044 19.677319204184023 -1 3 4
872 1 3 0.053 12.611379976708115 7.334954721598315 21.762111559478573 -1 3 4
884 1 3 0.053 11.017110991398713 6.510419740796416 19.232750240732535 -1 3 4
883 1 3 0.053 10.755163297488583 7.852042845693166 18.26138064206416 -1 3 4
3069 1 3 0.053 5.991137012545977 10.518567497583154 21.341722832856657 0 2 4
3320 1 5 -0.266 12.920459852177292 9.238714487700602 17.573653436036313 -1 3 5
875 1 1 0.027 13.217974851070315 8.263021809197323 18.537362649734852 -1 3 4
3070 1 3 0.053 7.504573456813015 11.020430629305286 22.200275415424983 0 2 4
3071 1 3 0.053 7.547112639286154 10.439216499096922 20.424645541721308 0 2 4
3068 1 1 -0.159 7.054155790211174 11.084411348981478 21.23804251290475 0 2 4
2777 1 3 0.053 5.298664578244423 10.432528386225165 18.75886637385146 -1 3 5
4269 1 3 0.053 8.74704183001717 5.883127492866947 26.858867097465247 -1 3 5
4594 1 3 0.053 10.565680452765399 11.298035282828218 23.034479157538854 -1 2 4
1733 1 1 -0.106 13.968030946751986 13.979012216116534 20.976296269400976 -1 3 5
4259 1 3 0.053 6.904742083662488 7.164439404268454 22.841911916787687 -1 3 5
878 1 5 -0.266 13.504582585545426 10.19277014813203 20.519292381472564 -1 3 4
2436 1 1 -0.106 8.5461960947247 21.253643546976654 25.01680965243977 0 2 5
3066 1 3 0.053 6.67632079463278 12.555524871936411 19.682044050027798 0 2 4
4319 1 5 -0.266 6.629021698531561 15.422491316495396 20.181928485798394 -1 2 4
3056 1 3 0.053 7.2780760384043575 14.356345691428107 22.82536882439489 0 2 4
4313 1 3 0.053 9.18583939450657 15.770481007073787 20.70013845263422 -1 2 4
3065 1 1 -0.106 6.86814785471006 12.505379661082092 20.818658145477453 0 2 4
3067 1 3 0.053 7.870372077655715 13.143678085836521 20.970344854373657 0 2 4
1726 1 1 0.027 13.450202900402996 11.571680797594365 20.2738835760485 -1 3 5
2726 1 3 0.053 12.354745148508341 11.99457878997754 20.555475124239784 -1 3 4
4312 1 1 0.027 9.228216235924787 16.86972828943334 20.975114476384718 -1 2 4
4263 1 1 0 6.819217733767026 5.1109284222801445 25.887508915319415 -1 3 5
3055 1 3 0.053 6.516609787722803 12.717740447210769 23.376185517927983 0 2 4
4311 1 5 -0.266 9.229680185697624 16.83069119521243 22.30189099180317 -1 2 4
4308 1 1 0.027 10.115142921941285 15.882252777667123 22.893491663139443 -1 2 4
4309 1 3 0.053 9.969766823686797 14.821558161001954 22.6061126047436 -1 2 4
4323 1 1 -0.106 8.112488929543616 17.629151188062163 18.754440479335816 -1 2 4
4320 1 1 0.027 6.704098390135251 16.7941898681581 20.780573854143185 -1 2 4
4314 1 3 0.053 10.123494578233338 17.392866919117196 20.4296068446882 -1 2 4
4325 1 3 0.053 8.718127123344043 18.551320348942482 18.632609938305873 -1 2 4
4310 1 3 0.053 11.134200178296755 16.1764781581099 22.606036705575423 -1 2 4
4322 1 3 0.053 6.62951923890794 16.742771398963075 21.833945910910963 -1 2 4
4315 1 1 0 7.949396929636491 17.510441156653318 20.38987740235366 -1 2 4
4324 1 3 0.053 8.79822026596882 16.774132379009885 18.47215039405917 -1 2 4
3054 1 1 0.027 6.338066415303014 13.722372453424718 23.03788745110094 0 2 4
2434 1 3 0.053 7.235153610425579 18.916750229183982 24.11947405803313 0 2 5
4321 1 3 0.053 5.8026349484534006 17.379269984290616 20.590660788157816 -1 2 4
3669 1 3 0.053 13.652503586778604 22.537557830886342 23.804685966018152 -1 2 4
3662 1 3 0.053 10.447668660059941 5.979794215951612 29.683829064059022 -1 3 4
3057 1 1 0 5.708049474660641 13.3961808386522 21.590916455257087 0 2 4
3058 1 1 0.027 5.509464231674703 14.619542168742946 20.639935054029863 0 2 4
3403 1 3 0.053 6.120577592142387 5.0297063324381 19.161950766318313 -1 3 5
4303 1 3 0.053 7.724781330726343 15.994556442947237 24.51337051891656 -1 2 4
3053 1 5 -0.266 5.5371840327938715 14.55753692361444 23.836425484385465 0 2 4
1728 1 3 0.053 13.489967314453205 11.785216546440058 19.167349650864825 -1 3 5
3695 1 3 0.053 10.415504934850006 23.273488437982447 20.026165708731533 -1 2 4
4329 1 3 0.053 6.476357998450395 16.525115164845943 17.971513793888136 -1 2 4
4326 1 1 -0.159 6.893871223974878 17.549904788773595 17.948751965755683 -1 2 4
3037 1 3 0.053 6.9054792601086135 16.942013967253033 27.82246979886066 0 2 4
1529 1 5 -0.266 10.76795162762506 21.576478919466872 18.386388309909364 -1 2 5
4318 1 3 0.053 6.851891906390207 19.557648302252876 20.657714279967916 -1 2 4
3687 1 1 0.027 11.25198599244922 20.62136534659725 19.399435288799772 -1 2 4
4316 1 1 0.027 7.767756875977991 19.026086858073356 20.96601171761285 -1 2 4
3686 1 1 0 10.652104350681931 21.141727103336265 20.758403929430557 -1 2 4
3685 1 3 0.053 11.27279635159253 19.238883238731823 21.530191122180547 -1 2 4
3682 1 5 -0.266 12.609410174602237 20.712883597060006 22.035246138832306 -1 2 4
3684 1 3 0.053 10.721709448910987 20.3830123504276 22.890395123023744 -1 2 4
3692 1 3 0.053 8.717424372521007 21.296590328406328 21.743148739207214 -1 2 4
3059 1 3 0.053 7.853910798180518 19.026805374992307 22.078970719039962 0 2 4
3683 1 1 0.027 11.253882275330033 20.301930938424633 21.978602063044868 -1 2 4
3691 1 1 0.027 9.144269146384293 21.038826412355082 20.79000913199093 -1 2 4
3690 1 5 -0.266 8.878595988089883 19.673573819980426 20.46359682653749 -1 2 4
3693 1 3 0.053 8.566551499874858 21.666587957614862 20.141854770655208 -1 2 4
4317 1 3 0.053 10.946693304505999 19.564401400430175 19.21514103445878 -1 2 4
3689 1 3 0.053 12.385557700991612 20.6065317288598 19.41363566119542 -1 2 4
3694 1 1 -0.106 10.866679160453433 22.658201176263617 20.931724724989447 -1 2 4
3679 1 1 0.027 13.216153615311061 19.999828116280014 23.08667775985222 -1 2 4
2682 1 3 0.053 13.500682322434468 23.19411667138302 29.727106800841938 -1 2 4
3696 1 3 0.053 11.904401467678358 22.801894946724822 20.551469934095756 -1 2 4
2430 1 3 0.053 6.36126554704225 22.478577177704047 23.94580251227525 0 2 5
821 1 3 0.053 14.13783680301737 4.948534837295463 27.30429113374837 -1 3 5
817 1 3 0.053 12.673708660117633 5.475124361634727 24.760750919098125 -1 3 5
3401 1 1 -0.159 6.177753338571009 5.443191340843614 18.104143468177185 -1 3 5
4328 1 3 0.053 6.05823965594332 18.099409220224636 18.422589698092345 -1 2 4
4256 1 1 -0.159 7.417038786465378 6.724169999689876 23.818603262402036 -1 3 5
2738 1 3 0.053 13.66518005020597 14.697468537677834 25.736807976120883 -1 3 4
3700 1 3 0.053 9.645473667746675 23.59947158823387 22.56847207891412 -1 2 4
3402 1 3 0.053 5.520672368268899 6.363890911444585 18.06636209750988 -1 3 5
4257 1 3 0.053 8.180648724248083 5.994557562946085 23.515825461594638 -1 3 5
1734 1 3 0.053 13.254968975713968 14.074109164739555 20.131347461337135 -1 3 5
2421 1 1 0.027 5.099477112186073 22.042135866224648 28.39205640910523 0 2 5
4260 1 1 -0.106 6.356316841108457 5.921951223840645 24.647535776572152 -1 3 5
4592 1 3 0.053 9.886243495839754 9.072725549583069 24.79615636521998 -1 2 4
4262 1 3 0.053 5.59136549443202 6.686047577224729 25.03210294503199 -1 3 5
2423 1 3 0.053 5.204299480112356 23.025385427687116 28.928513589775637 0 2 5
4268 1 1 0.027 7.696167488008079 5.695837147508949 26.98888346127486 -1 3 5
831 1 3 0.053 13.595821588819074 8.355098296185316 28.345235267915967 -1 3 5