LAMMPS output created by EMC v9.4.4, build Jul 27 2022 18:02:20

        4984  atoms
        4977  bonds
        9656  angles
       12801  dihedrals
        6248  impropers

           8  atom types
          12  bond types
          26  angle types
          39  dihedral types
          24  improper types

             0    46.05257926  xlo xhi
             0    46.05257926  ylo yhi
             0    46.05257926  zlo zhi

Masses

       1   12.01115  # c
       2   12.01115  # c1
       3   12.01115  # c3h
       4    1.00797  # h
       5    1.00797  # hc
       6   15.99940  # o3e
       7   15.99940  # oc
       8   15.99940  # oh

Atoms

       1       1   1 -0.1590  41.1336778194  36.5905025339  36.1837157883  # c
       2       1   5  0.0530  40.1687647709  37.0256803094  36.5452483636  # hc
       3       1   5  0.0530  41.8968603286  37.3374806398  36.2944285872  # hc
       4       1   5  0.0530  41.4024605963  35.7337760235  36.7571729323  # hc
       5       1   1 -0.1060  40.8677010908  36.2911423112  34.7110754928  # c
       6       1   5  0.0530  41.8823049016  36.2732743421  34.2112598712  # hc
       7       1   5  0.0530  40.4595870869  37.2316182398  34.2576782222  # hc
       8       1   1 -0.1060  39.9750673215  35.0374767844  34.4060962275  # c
       9       1   5  0.0530  40.5258456480  34.3458248316  33.7222303988  # hc
      10       1   5  0.0530  39.2103722248  35.4256296034  33.7420366977  # hc
      11       1   1 -0.1060  39.4529887861  34.0457742085  35.5025267621  # c
      12       1   5  0.0530  40.3199184663  33.7737329259  36.1751303925  # hc
      13       1   5  0.0530  38.9468576406  33.2121780444  35.0492891571  # hc
      14       1   2 -0.0530  38.4038828884  34.5974944424  36.5418068537  # c1
      15       1   5  0.0530  38.9906308605  35.1096421718  37.2640237283  # hc
      16       1   1 -0.1060  37.7978650259  33.4682426314  37.4317225939  # c
      17       1   5  0.0530  38.5996169598  32.6802979979  37.4783700185  # hc
      18       1   5  0.0530  37.6617341509  33.7709829064  38.4216482678  # hc
      19       1   1 -0.1590  36.5810186596  32.7694329094  36.8566592613  # c
      20       1   5  0.0530  36.3430482551  33.1045207086  35.8143770093  # hc
      21       1   5  0.0530  36.7035406891  31.6438421414  36.7324763693  # hc
      22       1   5  0.0530  35.7397268433  32.8523494714  37.5843738068  # hc
      23       1   1  0.0270  37.4152728794  35.6735416986  35.9493387442  # c
      24       1   5  0.0530  37.0773674241  35.3465574599  34.9625366579  # hc
      25       1   5  0.0530  36.4783133720  35.8966347538  36.4396179943  # hc
      26       1   7 -0.2660  38.0338387065  37.0241357411  35.8141716372  # oc
      27       1   1  0.0270  37.9664352283  38.0999227543  34.8482449094  # c
      28       1   5  0.0530  37.3571102048  37.9302900839  33.9431918524  # hc
      29       1   5  0.0530  38.9842894682  38.2616216082  34.5151805015  # hc
      30       1   3  0.0800  37.3298407734  39.3430637006  35.4360807369  # c3h
      31       1   5  0.0530  37.0971277574  39.2629599392  36.5129420644  # hc
      32       1   6 -0.2660  36.4607041665  40.1806210344  34.6766741790  # o3e
      33       1   1  0.0270  37.6102263829  40.7836563002  35.1675318598  # c
      34       1   5  0.0530  38.3326016611  41.0927205194  34.3303039896  # hc
      35       1   5  0.0530  37.3915974740  41.4852133844  36.0223077372  # hc
      36       2   1 -0.1590  19.4167821909  39.6999081192  20.1727001589  # c
      37       2   5  0.0530  19.7586007109  39.6263484633  21.2519843604  # hc
      38       2   5  0.0530  20.3014350383  40.0750684476  19.6272027622  # hc
      39       2   5  0.0530  19.2455831651  38.6740797517  19.7561259563  # hc
      40       2   1 -0.1060  18.1510695851  40.4851145380  19.6973468498  # c
      41       2   5  0.0530  17.9074972947  40.1672752515  18.6767189743  # hc
      42       2   5  0.0530  17.3326970133  40.2986965935  20.4438923713  # hc
      43       2   1 -0.1060  18.2376195728  42.0118083918  19.6693631135  # c
      44       2   5  0.0530  17.2771738172  42.5626115229  19.5610305880  # hc
      45       2   5  0.0530  18.7509987035  42.3643556288  20.5213907181  # hc
      46       2   1 -0.1060  19.1350958338  42.3286812738  18.4699288926  # c
      47       2   5  0.0530  18.4945776535  42.3860365993  17.5256479647  # hc
      48       2   5  0.0530  19.9308171908  41.4855818538  18.3848499723  # hc
      49       2   2 -0.0530  19.9644193043  43.5632205093  18.5656854735  # c1
      50       2   5  0.0530  20.4780847782  43.5141660417  17.5368223311  # hc
      51       2   1 -0.1060  21.1005292109  43.7009985713  19.6169843994  # c
      52       2   5  0.0530  21.7123562588  42.7523730756  19.6672489966  # hc
      53       2   5  0.0530  20.7417361504  43.7585220910  20.6280544481  # hc
      54       2   1 -0.1590  22.1321523254  44.7777038992  19.3822539500  # c
      55       2   5  0.0530  22.4248312900  44.4857650184  18.2991078877  # hc
      56       2   5  0.0530  22.9939953653  44.6449820220  20.0109518238  # hc
      57       2   5  0.0530  21.6743533857  45.7461853948  19.3403491535  # hc
      58       2   1  0.0270  19.1143663589  44.9042323920  18.5727271594  # c
      59       2   5  0.0530  19.6357668855  45.6743244928  18.0125606608  # hc
      60       2   5  0.0530  18.2077754121  44.6729083197  18.0511518776  # hc
      61       2   7 -0.2660  18.6845682868  45.3433369170  19.8714395249  # oc
      62       2   1  0.0270  18.1901766201  46.7028804952  19.8812634841  # c
      63       2   5  0.0530  17.0967079638  46.7881211836  20.0001102238  # hc
      64       2   5  0.0530  18.3399760442  47.1428429418  18.8982435536  # hc
      65       2   3  0.0800  18.8754610538  47.7165376503  20.8009015928  # c3h
      66       2   5  0.0530  18.4087851146  48.6850906105  20.6739250162  # hc
      67       2   6 -0.2660  20.2966340161  47.9824617540  21.0545031336  # o3e
      68       2   1  0.0270  19.5127837586  47.4566321992  22.1163068285  # c
      69       2   5  0.0530  19.8248300092  46.4855596898  22.3834238626  # hc
      70       2   5  0.0530  19.3058669020  48.0948895416  23.0156673810  # hc
      71       3   1 -0.1590  16.7021183877  20.3491098308   8.5360376227  # c
      72       3   5  0.0530  17.6900402555  20.2907434506   9.0161891884  # hc
      73       3   5  0.0530  16.2190112847  19.3996973774   8.7922143573  # hc
      74       3   5  0.0530  16.9862680463  20.2808464441   7.4482526320  # hc
      75       3   1 -0.1060  15.8994346962  21.5773402084   8.9409176838  # c
      76       3   5  0.0530  15.3811084547  21.3746384873   9.9234510819  # hc
      77       3   5  0.0530  16.6594837327  22.3881233170   9.1181528120  # hc
      78       3   1 -0.1060  14.8845273004  22.0493872731   7.8839482971  # c
      79       3   5  0.0530  14.2381566718  22.9033480433   8.3132232701  # hc
      80       3   5  0.0530  14.2286317374  21.1202786634   7.6180524346  # hc
      81       3   1 -0.1060  15.5487594482  22.5649484872   6.5463223769  # c
      82       3   5  0.0530  15.9155349712  21.7122936362   5.8832559168  # hc
      83       3   5  0.0530  16.5018529128  23.0265265378   6.9460773571  # hc
      84       3   2 -0.0530  14.7744346803  23.6700694363   5.6544859058  # c1
      85       3   5  0.0530  14.5410121059  24.4528515042   6.4217193997  # hc
      86       3   1 -0.1060  13.4500945811  23.2736839780   4.9454093104  # c
      87       3   5  0.0530  13.0962046472  24.1753660393   4.4574309445  # hc
      88       3   5  0.0530  12.6967210518  22.9297529049   5.6699955462  # hc
      89       3   1 -0.1590  13.7278758158  22.3260252640   3.7159010651  # c
      90       3   5  0.0530  12.7576341016  22.0026811420   3.4065352205  # hc
      91       3   5  0.0530  14.3901979616  21.4147182392   3.8871574698  # hc
      92       3   5  0.0530  14.2326869725  22.8307417493   2.8609355681  # hc
      93       3   1  0.0270  15.8010280601  24.2566595786   4.6092847183  # c
      94       3   5  0.0530  15.4662999578  25.2228797074   4.3127208205  # hc
      95       3   5  0.0530  15.8011587406  23.6672718046   3.6944987731  # hc
      96       3   7 -0.2660  17.1638640648  24.4564424573   5.1329253202  # oc
      97       3   1  0.0270  18.3468895063  23.8336406049   4.6046142905  # c
      98       3   5  0.0530  18.1137742381  23.6316757868   3.5764701411  # hc
      99       3   5  0.0530  19.1041317755  24.6258937689   4.6762634868  # hc
     100       3   3  0.0800  18.7444852925  22.5910459886   5.4228575427  # c3h
     101       3   5  0.0530  18.1463886426  21.6602369951   5.1874220888  # hc
     102       3   6 -0.2660  19.0185830144  22.8308460413   6.8457227193  # o3e
     103       3   1  0.0270  20.0620867964  22.4568420952   5.9185812168  # c
     104       3   5  0.0530  20.7890855691  23.2745982560   5.8062367022  # hc
     105       3   5  0.0530  20.6381800921  21.5051880315   6.0534641418  # hc
     106       4   1 -0.1590  21.5305989270  31.8311200150  24.3870978397  # c
     107       4   5  0.0530  20.9596725385  32.2067402629  23.5306520147  # hc
     108       4   5  0.0530  22.4853061562  32.3232063549  24.3128569799  # hc
     109       4   5  0.0530  21.7505196962  30.6815584532  24.1846887546  # hc
     110       4   1 -0.1060  20.7120848892  31.9760366692  25.6689762883  # c
     111       4   5  0.0530  21.0742724908  32.8024241817  26.3021344378  # hc
     112       4   5  0.0530  19.7870476145  32.2752902067  25.2977059826  # hc
     113       4   1 -0.1060  20.4906688964  30.7743809409  26.5263073934  # c
     114       4   5  0.0530  20.2236364018  29.9720780692  25.8592760944  # hc
     115       4   5  0.0530  19.5863979303  30.9930290178  27.0574345526  # hc
     116       4   1 -0.1060  21.5997922365  30.2229420910  27.4615590092  # c
     117       4   5  0.0530  22.0709986675  29.3622890022  26.9138836460  # hc
     118       4   5  0.0530  22.3944715786  31.0186109903  27.7526301616  # hc
     119       4   2 -0.0530  20.9852259228  29.8064923607  28.8719345816  # c1
     120       4   5  0.0530  20.1108138492  29.1515556485  28.6487596165  # hc
     121       4   1 -0.1060  20.2691646333  30.9040417741  29.6283613450  # c
     122       4   5  0.0530  19.5398901931  30.4022978230  30.2803762524  # hc
     123       4   5  0.0530  19.5688332688  31.4399257868  28.9528350489  # hc
     124       4   1 -0.1590  20.8985297291  31.9578052602  30.5377082830  # c
     125       4   5  0.0530  20.7838587297  31.8558495797  31.6318020102  # hc
     126       4   5  0.0530  22.0085044490  31.9460354609  30.5084480398  # hc
     127       4   5  0.0530  20.4417916370  32.9806182652  30.3446501040  # hc
     128       4   1  0.0270  21.9989918593  28.9515940810  29.5904396449  # c
     129       4   5  0.0530  22.0479255951  28.0813642326  28.8516006242  # hc
     130       4   5  0.0530  21.6545457342  28.5214869077  30.5563047808  # hc
     131       4   7 -0.2660  23.2983072525  29.4593896780  29.7544353921  # oc
     132       4   1  0.0270  24.2649493279  29.1688383851  28.7194979152  # c
     133       4   5  0.0530  24.5145147703  30.2040140279  28.4163597900  # hc
     134       4   5  0.0530  23.8400343556  28.6572170293  27.8666333967  # hc
     135       4   3  0.0800  25.4485576881  28.2676189530  29.2369581494  # c3h
     136       4   5  0.0530  26.2852134428  28.7506180282  29.7454842299  # hc
     137       4   6 -0.2660  25.8885024770  27.1485745259  28.3763645853  # o3e
     138       4   1  0.0270  25.3683199212  26.8186139708  29.6655299636  # c
     139       4   5  0.0530  26.0647321279  26.4110239284  30.4274912495  # hc
     140       4   5  0.0530  24.3619495858  26.3172294246  29.6274390103  # hc
     141       5   1 -0.1590  20.7135462583  11.7267863416   2.0741827596  # c
     142       5   5  0.0530  19.8292683643  11.3298732203   2.5335347536  # hc
     143       5   5  0.0530  21.2079410803  10.8168701820   1.6777971021  # hc
     144       5   5  0.0530  21.4084728158  12.0263995412   2.8327853639  # hc
     145       5   1 -0.1060  20.6174159036  12.7219503275   0.9101273096  # c
     146       5   5  0.0530  20.7794974240  13.7601544445   1.2702925248  # hc
     147       5   5  0.0530  21.5100270894  12.5011479702   0.2993027574  # hc
     148       5   1 -0.1060  19.3418963239  12.7091735167   0.0512896746  # c
     149       5   5  0.0530  19.6164497966  13.1122703533  -0.9944462592  # hc
     150       5   5  0.0530  19.0196416909  11.6659582133  -0.1207740513  # hc
     151       5   1 -0.1060  18.1712500774  13.4367524750   0.7204056710  # c
     152       5   5  0.0530  17.7539306450  14.2148947438  -0.0231292263  # hc
     153       5   5  0.0530  18.5913338026  14.0308894967   1.5087055082  # hc
     154       5   2 -0.0530  16.9260121545  12.5957934547   1.2827922643  # c1
     155       5   5  0.0530  16.1331092294  12.7982872118   0.5810894319  # hc
     156       5   1 -0.1060  16.5605535240  13.1506442820   2.6677488789  # c
     157       5   5  0.0530  17.4643591537  12.8661254902   3.2732931210  # hc
     158       5   5  0.0530  15.7170170483  12.5504566123   3.0624439695  # hc
     159       5   1 -0.1590  16.3007205567  14.6692175392   2.4947454953  # c
     160       5   5  0.0530  15.6859796321  15.1462034383   3.2652857999  # hc
     161       5   5  0.0530  15.6476633329  14.8568659164   1.6055209791  # hc
     162       5   5  0.0530  17.1223041998  15.3184715952   2.4563568009  # hc
     163       5   1  0.0270  17.0888879721  11.0533303730   1.3036766052  # c
     164       5   5  0.0530  16.3495251685  10.5764623151   1.9550123226  # hc
     165       5   5  0.0530  18.0981944700  10.7047252441   1.6691394438  # hc
     166       5   7 -0.2660  16.8565675299  10.4962953521   0.0072220417  # oc
     167       5   1  0.0270  16.3633775140   9.1503278708   0.0226186481  # c
     168       5   5  0.0530  15.3640967625   9.0221221440   0.3731999819  # hc
     169       5   5  0.0530  16.9580654307   8.4756713524   0.6638199542  # hc
     170       5   3  0.0800  16.3183294368   8.5635153770  -1.4199950517  # c3h
     171       5   5  0.0530  15.8403167679   7.5625503295  -1.5274688493  # hc
     172       5   6 -0.2660  17.6391110104   8.5498332952  -2.0772616340  # o3e
     173       5   1  0.0270  16.5265193746   9.1710041569  -2.7382208427  # c
     174       5   5  0.0530  16.5450511617  10.2878849954  -2.8968988168  # hc
     175       5   5  0.0530  16.1441844148   8.5861278120  -3.5866887887  # hc
     176       6   1 -0.1590  15.2459298223  29.1178195523   3.0226808241  # c
     177       6   5  0.0530  14.9640741913  28.0994690846   2.8299462620  # hc
     178       6   5  0.0530  15.3260472158  29.2272081543   4.1777876696  # hc
     179       6   5  0.0530  14.4173251768  29.6961740473   2.5792981779  # hc
     180       6   1 -0.1060  16.5039844970  29.6405055351   2.3731774340  # c
     181       6   5  0.0530  16.5081148667  30.6560005953   2.8016817091  # hc
     182       6   5  0.0530  17.4221167602  29.2191569905   2.7089190632  # hc
     183       6   1 -0.1060  16.3935216525  29.5827552002   0.8303353629  # c
     184       6   5  0.0530  16.3943342751  28.5567908901   0.5288700643  # hc
     185       6   5  0.0530  15.4081697992  29.8469044751   0.5127591371  # hc
     186       6   1 -0.1060  17.3324662332  30.5198165433   0.0354068268  # c
     187       6   5  0.0530  18.3205142716  30.0344851976   0.1582087759  # hc
     188       6   5  0.0530  17.3138089552  31.4057224046   0.5926642373  # hc
     189       6   2 -0.0530  17.1157838309  30.8835977827  -1.4598626949  # c1
     190       6   5  0.0530  16.1501504304  31.3769037663  -1.4528426156  # hc
     191       6   1 -0.1060  16.9764907466  29.6806963734  -2.5137941318  # c
     192       6   5  0.0530  16.2863174081  28.8213801827  -2.1441478088  # hc
     193       6   5  0.0530  16.4643461415  30.1298970664  -3.3823601430  # hc
     194       6   1 -0.1590  18.2033406549  28.9964125846  -2.9207658474  # c
     195       6   5  0.0530  17.9584860349  28.2748125179  -3.7775535776  # hc
     196       6   5  0.0530  18.9408161965  29.7126405594  -3.3695240112  # hc
     197       6   5  0.0530  18.8740123910  28.4802757658  -2.1848318659  # hc
     198       6   1  0.0270  18.0564208037  31.9473657122  -2.0420830481  # c
     199       6   5  0.0530  17.6828570969  32.1824087396  -3.0536287078  # hc
     200       6   5  0.0530  19.1130518501  31.6885728418  -2.1780581441  # hc
     201       6   7 -0.2660  18.0431986203  33.0960728893  -1.2823898233  # oc
     202       6   1  0.0270  18.3492790180  34.3845309272  -1.7729834294  # c
     203       6   5  0.0530  17.7752628804  34.6317368978  -2.7187806610  # hc
     204       6   5  0.0530  19.3345400625  34.5413816641  -2.0051742520  # hc
     205       6   3  0.0800  17.8194678536  35.1596590949  -0.5713147197  # c3h
     206       6   5  0.0530  18.4958481095  35.0980870691   0.2798086859  # hc
     207       6   6 -0.2660  16.3233730386  35.3045541159  -0.3017008247  # o3e
     208       6   1  0.0270  17.1484964109  36.4467534659  -0.6702177703  # c
     209       6   5  0.0530  16.8268354332  36.8508414908  -1.6874943967  # hc
     210       6   5  0.0530  17.3414485438  37.1341320902   0.0863054169  # hc
     211       7   1 -0.1590  33.1038744346  45.4824265925  19.4580861433  # c
     212       7   5  0.0530  32.6946574338  45.6925045326  18.4559982431  # hc
     213       7   5  0.0530  32.2018154301  45.3809640169  20.0299982490  # hc
     214       7   5  0.0530  33.5822001522  44.4743944701  19.3595296646  # hc
     215       7   1 -0.1060  34.0554666741  46.5341078562  20.0079632077  # c
     216       7   5  0.0530  33.4722224523  47.5044666975  19.9646189438  # hc
     217       7   5  0.0530  34.3055531679  46.3926187789  21.0483460607  # hc
     218       7   1 -0.1060  35.3679895084  46.5931221290  19.1823543725  # c
     219       7   5  0.0530  35.0105213258  46.8997561381  18.1456043348  # hc
     220       7   5  0.0530  35.9091933937  45.6649305286  19.0678065497  # hc
     221       7   1 -0.1060  36.3154520423  47.6622587402  19.6757196868  # c
     222       7   5  0.0530  35.9500682855  48.6538363913  19.4810351459  # hc
     223       7   5  0.0530  37.3024741221  47.5752585931  19.0324407662  # hc
     224       7   2 -0.0530  37.0185300495  47.4009634920  21.0486373318  # c1
     225       7   5  0.0530  36.1052707806  47.5260208418  21.7194471964  # hc
     226       7   1 -0.1060  38.1373882394  48.4401763028  21.4598440872  # c
     227       7   5  0.0530  37.9888468999  49.3944725065  20.8961097239  # hc
     228       7   5  0.0530  39.1253446345  48.1902110526  21.0870387261  # hc
     229       7   1 -0.1590  38.1221315158  48.6410951103  23.0288887675  # c
     230       7   5  0.0530  38.8568246849  47.9430408197  23.4808554654  # hc
     231       7   5  0.0530  38.3067769534  49.6753734811  23.3913258681  # hc
     232       7   5  0.0530  37.1695283370  48.4737679175  23.5619727881  # hc
     233       7   1  0.0270  37.5711496838  45.9184508539  21.2164479026  # c
     234       7   5  0.0530  36.6968480687  45.2806193944  21.0856043184  # hc
     235       7   5  0.0530  37.6998674561  45.7553404735  22.2695804093  # hc
     236       7   7 -0.2660  38.5743020240  45.3701123460  20.3027019366  # oc
     237       7   1  0.0270  39.9461951796  45.6511345677  20.3926474765  # c
     238       7   5  0.0530  40.5068796263  44.9254612143  19.7970970469  # hc
     239       7   5  0.0530  40.1025663364  46.6290673416  19.8614095565  # hc
     240       7   3  0.0800  40.5147631530  45.7830599458  21.7549434668  # c3h
     241       7   5  0.0530  40.0245119890  45.2843373690  22.5271046112  # hc
     242       7   6 -0.2660  41.1322038772  47.0837328540  22.0167946503  # o3e
     243       7   1  0.0270  41.9623562846  45.8811488643  21.8743724404  # c
     244       7   5  0.0530  42.6029149773  45.8725504415  20.9761801609  # hc
     245       7   5  0.0530  42.5467613154  45.7205047386  22.7430079535  # hc
     246       8   1 -0.1590   2.2295043055  42.5408253042  26.6659561567  # c
     247       8   5  0.0530   1.7197286569  41.5804725943  26.8950043342  # hc
     248       8   5  0.0530   2.0015877038  43.1997832796  27.5097065273  # hc
     249       8   5  0.0530   3.3481316509  42.3284735518  26.6986827239  # hc
     250       8   1 -0.1060   1.7152704923  43.3368160820  25.4115951583  # c
     251       8   5  0.0530   2.0286856756  42.8828929197  24.4938034193  # hc
     252       8   5  0.0530   0.5975160110  43.3187709635  25.4072235692  # hc
     253       8   1 -0.1060   2.1470506332  44.8471256274  25.2843520363  # c
     254       8   5  0.0530   1.6456898579  45.4527819978  26.0368644960  # hc
     255       8   5  0.0530   3.2109792206  44.8814320029  25.6458650202  # hc
     256       8   1 -0.1060   1.9574601364  45.4050898881  23.8559153263  # c
     257       8   5  0.0530   2.4405912151  44.7533054030  23.0756289901  # hc
     258       8   5  0.0530   2.4812278991  46.3540648645  23.8520313892  # hc
     259       8   2 -0.0530   0.4258679685  45.7374416371  23.4553579198  # c1
     260       8   5  0.0530   0.6585340281  46.3593431145  22.5679540835  # hc
     261       8   1 -0.1060  -0.5221236135  46.5615706384  24.4686977837  # c
     262       8   5  0.0530  -0.2861157409  46.3394868135  25.5154790062  # hc
     263       8   5  0.0530  -1.5694452232  46.3468520519  24.3200490149  # hc
     264       8   1 -0.1590  -0.2113487082  48.0489338323  24.2765905040  # c
     265       8   5  0.0530  -0.0821248571  48.3924797751  23.2704154207  # hc
     266       8   5  0.0530   0.6390631690  48.5011705364  24.7825919049  # hc
     267       8   5  0.0530  -1.0970855903  48.5995468318  24.6338793881  # hc
     268       8   1  0.0270  -0.3079778424  44.5148157736  22.9393137568  # c
     269       8   5  0.0530  -1.3667709987  44.7198037386  22.7978344396  # hc
     270       8   5  0.0530  -0.2175508030  43.6075389575  23.5987991343  # hc
     271       8   7 -0.2660   0.4264801748  44.2184223949  21.7273057448  # oc
     272       8   1  0.0270   0.1394810854  43.0706158346  20.9311995844  # c
     273       8   5  0.0530   0.9206699378  42.9439083322  20.2072088029  # hc
     274       8   5  0.0530   0.2553915596  42.1460070522  21.5003215179  # hc
     275       8   3  0.0800  -1.3275695214  42.9813808108  20.6109601995  # c3h
     276       8   5  0.0530  -1.2301992570  44.0382559130  20.2698266307  # hc
     277       8   6 -0.2660  -2.2944310289  42.8317587516  21.6113828420  # o3e
     278       8   1  0.0270  -2.7223623044  42.9017694071  20.2645263382  # c
     279       8   5  0.0530  -3.3599880404  42.1084227786  19.8048546785  # hc
     280       8   5  0.0530  -3.3691600474  43.7552502351  19.9882197645  # hc
     281       9   1 -0.1590  26.1309568663  14.3401831448  13.7459039662  # c
     282       9   5  0.0530  25.2902356075  14.2517451447  13.0453534122  # hc
     283       9   5  0.0530  27.0306597180  14.0241055506  13.1247714109  # hc
     284       9   5  0.0530  26.0430760114  13.4950749116  14.5018331160  # hc
     285       9   1 -0.1060  26.2752117066  15.8201482599  14.2438754781  # c
     286       9   5  0.0530  26.9386550086  16.3648902048  13.5219322157  # hc
     287       9   5  0.0530  26.8954832343  15.8455917145  15.1352500907  # hc
     288       9   1 -0.1060  25.0021870971  16.4814121326  14.5977542474  # c
     289       9   5  0.0530  24.9425429719  16.3059082608  15.6761031827  # hc
     290       9   5  0.0530  24.0977147772  16.1060417680  14.1940066701  # hc
     291       9   1 -0.1060  24.9974396435  17.9161786908  14.1689586936  # c
     292       9   5  0.0530  25.0347492215  17.9379432258  13.1010694535  # hc
     293       9   5  0.0530  25.8767512732  18.3664845473  14.4988143840  # hc
     294       9   2 -0.0530  23.6501573929  18.7059883398  14.5055329450  # c1
     295       9   5  0.0530  23.2586257416  18.4583216873  15.5355370020  # hc
     296       9   1 -0.1060  22.4634925127  18.3157536751  13.5893869812  # c
     297       9   5  0.0530  22.6291513669  17.2328944729  13.3018429458  # hc
     298       9   5  0.0530  21.4471145312  18.2406702081  14.1274144377  # hc
     299       9   1 -0.1590  22.3732016659  19.0311955446  12.2133905227  # c
     300       9   5  0.0530  22.0463319432  20.0467336914  12.3385383362  # hc
     301       9   5  0.0530  23.3333793782  19.0774421602  11.7459331764  # hc
     302       9   5  0.0530  21.8325548132  18.4507849951  11.5800687238  # hc
     303       9   1  0.0270  23.9958017137  20.1885742186  14.6213493625  # c
     304       9   5  0.0530  24.6611381679  20.2250635349  15.5279083204  # hc
     305       9   5  0.0530  23.0271825266  20.7595798903  14.7449487707  # hc
     306       9   7 -0.2660  24.5704989520  20.6321364223  13.3788126738  # oc
     307       9   1  0.0270  25.9644807293  20.9178360813  13.2958571855  # c
     308       9   5  0.0530  26.5776735496  20.0940918469  12.8934502817  # hc
     309       9   5  0.0530  26.3499565565  21.1009355781  14.3106684797  # hc
     310       9   3  0.0800  26.4201491304  22.0707926399  12.4219016088  # c3h
     311       9   5  0.0530  27.5913653167  22.1044244758  12.5003501927  # hc
     312       9   6 -0.2660  25.7942252183  23.3004749348  12.6609035464  # o3e
     313       9   1  0.0270  25.7986524266  22.7839556395  11.2749898212  # c
     314       9   5  0.0530  24.8901936277  22.4635914942  10.7156926874  # hc
     315       9   5  0.0530  26.5227686538  23.3196074327  10.6798562262  # hc
     316      10   1 -0.1590  21.6587727004  39.5952830397  35.4883408192  # c
     317      10   5  0.0530  20.7845494015  38.9818948188  35.7584470888  # hc
     318      10   5  0.0530  22.4755319310  39.1113307913  36.0298876220  # hc
     319      10   5  0.0530  21.9502240673  39.5828702384  34.4090190366  # hc
     320      10   1 -0.1060  21.5227110966  41.0069051923  35.9474782742  # c
     321      10   5  0.0530  21.0763028461  41.5689012355  35.0550973054  # hc
     322      10   5  0.0530  22.5435790614  41.3805420230  35.9668047446  # hc
     323      10   1 -0.1060  20.9885621213  41.3691399167  37.3100300225  # c
     324      10   5  0.0530  20.9520655078  42.3919891277  37.4184960101  # hc
     325      10   5  0.0530  19.9674991039  41.0856532373  37.2986270892  # hc
     326      10   1 -0.1060  21.7187637287  40.8664683647  38.5289564187  # c
     327      10   5  0.0530  21.5318449928  41.5783439148  39.3194601081  # hc
     328      10   5  0.0530  22.7915532942  40.7752147305  38.2498979927  # hc
     329      10   2 -0.0530  21.2531099502  39.4869039964  39.1668780619  # c1
     330      10   5  0.0530  21.2465598099  38.6019518352  38.4288829351  # hc
     331      10   1 -0.1060  19.9832209639  39.3559160097  39.9672229879  # c
     332      10   5  0.0530  20.0530335633  38.4899709359  40.5891397408  # hc
     333      10   5  0.0530  19.8394224845  40.2208380304  40.5906684243  # hc
     334      10   1 -0.1590  18.6784252664  39.1477162533  39.1883587760  # c
     335      10   5  0.0530  18.7018827220  39.6371972824  38.1766395326  # hc
     336      10   5  0.0530  17.7893650032  39.4967158993  39.6796250064  # hc
     337      10   5  0.0530  18.3783511165  38.0724390096  38.9704417192  # hc
     338      10   1  0.0270  22.4064721170  38.9742075012  40.1259728651  # c
     339      10   5  0.0530  22.1053853605  38.0153958761  40.6064300177  # hc
     340      10   5  0.0530  23.2415528553  38.6428823996  39.5808374060  # hc
     341      10   7 -0.2660  22.7932257947  39.7758236444  41.2180063947  # oc
     342      10   1  0.0270  23.8483254164  40.7147147894  41.1807443297  # c
     343      10   5  0.0530  23.4596137588  41.4862416039  40.5179000508  # hc
     344      10   5  0.0530  24.7314985719  40.3464567385  40.5987753653  # hc
     345      10   3  0.0800  24.5210151436  40.8815076489  42.5696429141  # c3h
     346      10   5  0.0530  25.2433521810  40.0818512210  42.6730639285  # hc
     347      10   6 -0.2660  23.6015000831  41.1754446367  43.6714911879  # o3e
     348      10   1  0.0270  24.7364434932  42.0401626536  43.4187334831  # c
     349      10   5  0.0530  25.5702289323  42.0862722736  44.1851347519  # hc
     350      10   5  0.0530  24.4173150727  43.0205832848  43.1635256754  # hc
     351      11   1 -0.1590   0.0109729881  43.1802839028  17.2939631508  # c
     352      11   5  0.0530  -0.6548298899  43.7410668857  16.6622762247  # hc
     353      11   5  0.0530   1.0301580286  43.0835264464  16.8339300134  # hc
     354      11   5  0.0530   0.1081511600  43.7111104555  18.2457438348  # hc
     355      11   1 -0.1060  -0.5085879056  41.8040428884  17.6134964283  # c
     356      11   5  0.0530  -0.1917849610  41.5209484996  18.6479627166  # hc
     357      11   5  0.0530  -1.6131250340  42.0065239060  17.8078258598  # hc
     358      11   1 -0.1060  -0.0829138328  40.7107718945  16.6245456405  # c
     359      11   5  0.0530   0.9973237500  40.7912682674  16.6481128695  # hc
     360      11   5  0.0530  -0.4042748978  41.0834598333  15.6151721043  # hc
     361      11   1 -0.1060  -0.7036167084  39.3310406047  16.7320321415  # c
     362      11   5  0.0530  -0.3837789742  38.8067726601  17.6473608442  # hc
     363      11   5  0.0530  -1.7976351249  39.5624114616  16.8848915118  # hc
     364      11   2 -0.0530  -0.2864608379  38.4249235030  15.5402943162  # c1
     365      11   5  0.0530  -0.5968021706  38.8885048782  14.6183696707  # hc
     366      11   1 -0.1060  -0.7804389625  36.9776076437  15.5975258374  # c
     367      11   5  0.0530  -0.1976710830  36.3681576330  14.8497487321  # hc