LAMMPS output created by EMC v9.4.4, build Jul 27 2022 18:02:20

          81  atoms
          82  bonds
         158  angles
         201  dihedrals
         100  impropers

           6  atom types
          10  bond types
          21  angle types
          25  dihedral types
          19  improper types

             0    42.93566549  xlo xhi
             0    42.93566549  ylo yhi
             0    42.93566549  zlo zhi

Masses

       1   12.01115  # c
       2   12.01115  # c1
       3   12.01115  # c3h
       4    1.00797  # hc
       5   15.99940  # o3e
       6   15.99940  # oc

Atoms

       1       1   1 -0.1590  27.4702157283  41.4941470511   9.7842014080  # c
       2       1   4  0.0530  26.4162358750  41.2282226019   9.5709472082  # hc
       3       1   4  0.0530  28.0629786438  41.2319269762   8.9603473964  # hc
       4       1   4  0.0530  27.5724824333  42.5664427229   9.9730760924  # hc
       5       1   2  0.0800  27.7241201315  40.6752050595  11.0889225491  # c1
       6       1   4  0.0530  27.4102771899  39.6085333938  11.0593532861  # hc
       7       1   1 -0.1590  29.2523943209  40.7968439127  11.2822707015  # c
       8       1   4  0.0530  29.5857366045  40.2813968062  12.2119218232  # hc
       9       1   4  0.0530  29.7341375717  40.3395702447  10.3796877595  # hc
      10       1   4  0.0530  29.4962988339  41.9136089131  11.3918151129  # hc
      11       1   6 -0.2660  27.3172076089  41.3473135318  12.3269085616  # oc
      12       1   1  0.0270  26.1349750299  41.0871375992  13.0879924589  # c
      13       1   4  0.0530  26.0364049269  40.0658324171  13.4170736379  # hc
      14       1   4  0.0530  25.2418062781  41.3550037693  12.5003097030  # hc
      15       1   1 -0.1060  26.1849008541  41.9216100278  14.4731257087  # c
      16       1   4  0.0530  25.2573122673  41.9625340304  15.0996770167  # hc
      17       1   4  0.0530  27.0069120572  41.5846328506  15.0660512039  # hc
      18       1   1  0.0270  26.5231400996  43.4799628647  14.3554147609  # c
      19       1   4  0.0530  27.6092856354  43.6139147246  14.1821397578  # hc
      20       1   4  0.0530  26.3698306211  43.9825852055  15.3723498660  # hc
      21       1   6 -0.2660  25.6866473608  44.1008818634  13.3950265390  # oc
      22       1   1  0.0270  26.3636054628  44.9858463893  12.5361106737  # c
      23       1   4  0.0530  26.7149609425  45.8001357577  13.1540089028  # hc
      24       1   4  0.0530  27.2383642892  44.6166140085  11.9671052663  # hc
      25       1   1  0.0000  25.4441570529  45.3699366361  11.4189268515  # c
      26       1   1 -0.1590  25.2031648919  44.1642609046  10.5362342295  # c
      27       1   4  0.0530  26.0520359609  43.8625215089   9.8236822661  # hc
      28       1   4  0.0530  24.9441654288  43.1808444017  10.9345992318  # hc
      29       1   4  0.0530  24.3758648060  44.4819637608   9.7792383416  # hc
      30       1   1 -0.1590  26.2035165845  46.3574888413  10.5283138073  # c
      31       1   4  0.0530  26.9984051797  45.8430266771   9.8288087765  # hc
      32       1   4  0.0530  26.7843862101  47.1620856848  11.0038798370  # hc
      33       1   4  0.0530  25.5373181797  46.7915290522   9.7263417738  # hc
      34       1   1  0.0270  24.1995029030  46.1660414023  11.8308131763  # c
      35       1   4  0.0530  23.3922268732  45.4760154106  12.1199879271  # hc
      36       1   4  0.0530  23.6434513524  46.6736321286  11.0039308293  # hc
      37       1   6 -0.2660  24.4520724102  46.9750043330  12.9929665234  # oc
      38       1   1  0.0270  24.7130597600  48.3166889644  12.7490086664  # c
      39       1   4  0.0530  24.7613702527  48.6317517704  11.6497669884  # hc
      40       1   4  0.0530  23.8511327455  48.8815856906  13.1727471799  # hc
      41       1   3  0.0800  26.0145347115  48.6841432545  13.3440002252  # c3h
      42       1   4  0.0530  26.7891991200  47.9576068732  13.1320459218  # hc
      43       1   5 -0.2660  25.8750960717  49.1150436781  14.7258499337  # o3e
      44       1   1  0.0270  26.3966400334  50.0585495835  13.8075646189  # c
      45       1   4  0.0530  25.7728715873  50.9273097792  13.7104013809  # hc
      46       1   4  0.0530  27.4451369795  50.3746529369  13.9604558276  # hc
      47       2   1 -0.1590   2.9731129404   3.7793199813   0.0531052190  # c
      48       2   4  0.0530   3.5655882322   4.0304903398  -0.8292448195  # hc
      49       2   4  0.0530   1.9116117388   3.6769622165  -0.1636970085  # hc
      50       2   4  0.0530   3.0225827496   4.6058244943   0.7972284485  # hc
      51       2   1  0.0000   3.5479170749   2.5776197985   0.7900908737  # c
      52       2   1  0.0270   3.6270471746   1.3390550271  -0.1268881733  # c
      53       2   4  0.0530   4.5379994934   1.3930065255  -0.7091849104  # hc
      54       2   4  0.0530   3.7129136531   0.4834805867   0.6118939485  # hc
      55       2   6 -0.2660   2.5308399552   1.2835014033  -0.9397592389  # oc
      56       2   1  0.0270   2.3795685898   0.1586348806  -1.7596260597  # c
      57       2   4  0.0530   2.8395598349  -0.8001995309  -1.2891109689  # hc
      58       2   4  0.0530   1.2648342333   0.0069985034  -1.6369445832  # hc
      59       2   3  0.0800   2.8525608950   0.3412609646  -3.1905176741  # c3h
      60       2   4  0.0530   2.6430660583   1.3397097682  -3.5811220644  # hc
      61       2   5 -0.2660   2.4820390380  -0.6780288250  -4.1559812347  # o3e
      62       2   1  0.0270   3.8983110531  -0.3732700893  -3.9098408322  # c
      63       2   4  0.0530   4.6030179694  -1.1291528640  -3.5518142270  # hc
      64       2   4  0.0530   4.3171803359   0.0352409115  -4.8144380524  # hc
      65       2   1 -0.1590   2.6098557271   2.1934234412   1.9850344350  # c
      66       2   4  0.0530   2.2567126414   3.1202660190   2.5041620815  # hc
      67       2   4  0.0530   1.7451022923   1.6256571203   1.7194058384  # hc
      68       2   4  0.0530   3.1234933335   1.6909732466   2.7884694050  # hc
      69       2   1  0.0270   4.9299610205   2.8894249207   1.3419708116  # c
      70       2   4  0.0530   4.8194130302   3.7467016172   2.0967856682  # hc
      71       2   4  0.0530   5.3021491847   2.0468133991   1.9242704348  # hc
      72       2   6 -0.2660   5.7622061629   3.3268777480   0.2800154607  # oc
      73       2   1  0.0270   7.1683236050   3.5172033709   0.6829222732  # c
      74       2   4  0.0530   7.2737801737   4.6288844531   0.6571819219  # hc
      75       2   4  0.0530   7.8208558990   3.1808104410  -0.1832836679  # hc
      76       2   3  0.0800   7.7637041237   3.0501832010   2.0510888632  # c3h
      77       2   4  0.0530   7.2254453408   2.2782640607   2.5488720784  # hc
      78       2   5 -0.2660   8.2812987274   4.0439172479   2.9052399168  # o3e
      79       2   1  0.0270   9.2346618286   3.1135820310   2.2889706237  # c
      80       2   4  0.0530   9.8503745776   3.6522485849   1.5267405892  # hc
      81       2   4  0.0530   9.7565683703   2.3241976578   2.8330478317  # hc

Bonds

       1       2       1       5  # c,c1
       2       4       1       2  # c,hc
       3       4       1       3  # c,hc
       4       4       1       4  # c,hc
       5       8       5      11  # c1,oc
       6       2       7       5  # c,c1
       7       7       5       6  # c1,hc
       8       4       7       8  # c,hc
       9       4       7       9  # c,hc
      10       4       7      10  # c,hc
      11       6      12      11  # c,oc
      12       1      12      15  # c,c
      13       4      12      13  # c,hc
      14       4      12      14  # c,hc
      15       1      15      18  # c,c
      16       4      15      16  # c,hc
      17       4      15      17  # c,hc
      18       6      18      21  # c,oc
      19       4      18      19  # c,hc
      20       4      18      20  # c,hc
      21       6      22      21  # c,oc
      22       1      22      25  # c,c
      23       4      22      23  # c,hc
      24       4      22      24  # c,hc
      25       1      25      34  # c,c
      26       1      25      26  # c,c
      27       1      25      30  # c,c
      28       4      26      27  # c,hc
      29       4      26      28  # c,hc
      30       4      26      29  # c,hc
      31       4      30      31  # c,hc
      32       4      30      32  # c,hc
      33       4      30      33  # c,hc
      34       6      34      37  # c,oc
      35       4      34      35  # c,hc
      36       4      34      36  # c,hc
      37       6      38      37  # c,oc
      38       3      38      41  # c,c3h
      39       4      38      39  # c,hc
      40       4      38      40  # c,hc
      41      10      41      43  # c3h,o3e
      42       9      41      42  # c3h,hc
      43       3      44      41  # c,c3h
      44       5      44      43  # c,o3e
      45       4      44      45  # c,hc
      46       4      44      46  # c,hc
      47       1      47      51  # c,c
      48       4      47      48  # c,hc
      49       4      47      49  # c,hc
      50       4      47      50  # c,hc
      51       1      51      69  # c,c
      52       1      51      52  # c,c
      53       1      51      65  # c,c
      54       6      52      55  # c,oc
      55       4      52      53  # c,hc
      56       4      52      54  # c,hc
      57       6      56      55  # c,oc
      58       3      56      59  # c,c3h
      59       4      56      57  # c,hc
      60       4      56      58  # c,hc
      61      10      59      61  # c3h,o3e
      62       9      59      60  # c3h,hc
      63       3      62      59  # c,c3h
      64       5      62      61  # c,o3e
      65       4      62      63  # c,hc
      66       4      62      64  # c,hc
      67       4      65      66  # c,hc
      68       4      65      67  # c,hc
      69       4      65      68  # c,hc
      70       6      69      72  # c,oc
      71       4      69      70  # c,hc
      72       4      69      71  # c,hc
      73       6      73      72  # c,oc
      74       3      73      76  # c,c3h
      75       4      73      74  # c,hc
      76       4      73      75  # c,hc
      77      10      76      78  # c3h,o3e
      78       9      76      77  # c3h,hc
      79       3      79      76  # c,c3h
      80       5      79      78  # c,o3e
      81       4      79      80  # c,hc
      82       4      79      81  # c,hc

Angles

       1       6       1       5      11  # c,c1,oc
       2       4       1       5       7  # c,c1,c
       3       5       1       5       6  # c,c1,hc
       4      13       5       1       2  # c1,c,hc
       5      17       2       1       3  # hc,c,hc
       6      17       2       1       4  # hc,c,hc
       7      13       5       1       3  # c1,c,hc
       8      17       3       1       4  # hc,c,hc
       9      13       5       1       4  # c1,c,hc
      10      12      12      11       5  # c,oc,c1
      11      13       5       7       8  # c1,c,hc
      12      13       5       7       9  # c1,c,hc
      13      13       5       7      10  # c1,c,hc
      14      20       6       5      11  # hc,c1,oc
      15       5       7       5       6  # c,c1,hc
      16       6       7       5      11  # c,c1,oc
      17      17       8       7       9  # hc,c,hc
      18      17       8       7      10  # hc,c,hc
      19      17       9       7      10  # hc,c,hc
      20       3      15      12      11  # c,c,oc
      21      19      13      12      11  # hc,c,oc
      22      19      14      12      11  # hc,c,oc
      23       1      12      15      18  # c,c,c
      24       2      12      15      16  # c,c,hc
      25       2      12      15      17  # c,c,hc
      26       2      15      12      13  # c,c,hc
      27      17      13      12      14  # hc,c,hc
      28       2      15      12      14  # c,c,hc
      29       3      15      18      21  # c,c,oc
      30       2      15      18      19  # c,c,hc
      31       2      15      18      20  # c,c,hc
      32       2      18      15      16  # c,c,hc
      33      17      16      15      17  # hc,c,hc
      34       2      18      15      17  # c,c,hc
      35      11      18      21      22  # c,oc,c
      36      19      19      18      21  # hc,c,oc
      37      17      19      18      20  # hc,c,hc
      38      19      20      18      21  # hc,c,oc
      39       3      25      22      21  # c,c,oc
      40      19      23      22      21  # hc,c,oc
      41      19      24      22      21  # hc,c,oc
      42       1      22      25      34  # c,c,c
      43       1      22      25      26  # c,c,c
      44       1      22      25      30  # c,c,c
      45       2      25      22      23  # c,c,hc
      46      17      23      22      24  # hc,c,hc
      47       2      25      22      24  # c,c,hc
      48       3      25      34      37  # c,c,oc
      49       2      25      34      35  # c,c,hc
      50       2      25      34      36  # c,c,hc
      51       2      25      26      27  # c,c,hc
      52       2      25      26      28  # c,c,hc
      53       2      25      26      29  # c,c,hc
      54       2      25      30      31  # c,c,hc
      55       2      25      30      32  # c,c,hc
      56       2      25      30      33  # c,c,hc
      57       1      26      25      34  # c,c,c
      58       1      26      25      30  # c,c,c
      59      17      27      26      28  # hc,c,hc
      60      17      27      26      29  # hc,c,hc
      61      17      28      26      29  # hc,c,hc
      62       1      30      25      34  # c,c,c
      63      17      31      30      32  # hc,c,hc
      64      17      31      30      33  # hc,c,hc
      65      17      32      30      33  # hc,c,hc
      66      11      34      37      38  # c,oc,c
      67      19      35      34      37  # hc,c,oc
      68      17      35      34      36  # hc,c,hc
      69      19      36      34      37  # hc,c,oc
      70      16      41      38      37  # c3h,c,oc
      71      19      39      38      37  # hc,c,oc
      72      19      40      38      37  # hc,c,oc
      73       9      38      41      43  # c,c3h,o3e
      74       8      38      41      42  # c,c3h,hc
      75       7      38      41      44  # c,c3h,c
      76      14      41      38      39  # c3h,c,hc
      77      17      39      38      40  # hc,c,hc
      78      14      41      38      40  # c3h,c,hc
      79      10      44      43      41  # c,o3e,c3h
      80      15      41      44      43  # c3h,c,o3e
      81      14      41      44      45  # c3h,c,hc
      82      14      41      44      46  # c3h,c,hc
      83      21      42      41      43  # hc,c3h,o3e
      84       8      44      41      42  # c,c3h,hc
      85       9      44      41      43  # c,c3h,o3e
      86      18      45      44      43  # hc,c,o3e
      87      18      46      44      43  # hc,c,o3e
      88      17      45      44      46  # hc,c,hc
      89       1      47      51      69  # c,c,c
      90       1      47      51      52  # c,c,c
      91       1      47      51      65  # c,c,c
      92       2      51      47      48  # c,c,hc
      93      17      48      47      49  # hc,c,hc
      94      17      48      47      50  # hc,c,hc
      95       2      51      47      49  # c,c,hc
      96      17      49      47      50  # hc,c,hc
      97       2      51      47      50  # c,c,hc
      98       3      51      69      72  # c,c,oc
      99       2      51      69      70  # c,c,hc
     100       2      51      69      71  # c,c,hc
     101       3      51      52      55  # c,c,oc
     102       2      51      52      53  # c,c,hc
     103       2      51      52      54  # c,c,hc
     104       2      51      65      66  # c,c,hc
     105       2      51      65      67  # c,c,hc
     106       2      51      65      68  # c,c,hc
     107       1      52      51      69  # c,c,c
     108       1      52      51      65  # c,c,c
     109      11      52      55      56  # c,oc,c
     110      19      53      52      55  # hc,c,oc
     111      17      53      52      54  # hc,c,hc
     112      19      54      52      55  # hc,c,oc
     113      16      59      56      55  # c3h,c,oc
     114      19      57      56      55  # hc,c,oc
     115      19      58      56      55  # hc,c,oc
     116       9      56      59      61  # c,c3h,o3e
     117       8      56      59      60  # c,c3h,hc
     118       7      56      59      62  # c,c3h,c
     119      14      59      56      57  # c3h,c,hc
     120      17      57      56      58  # hc,c,hc
     121      14      59      56      58  # c3h,c,hc
     122      10      62      61      59  # c,o3e,c3h
     123      15      59      62      61  # c3h,c,o3e
     124      14      59      62      63  # c3h,c,hc
     125      14      59      62      64  # c3h,c,hc
     126      21      60      59      61  # hc,c3h,o3e
     127       8      62      59      60  # c,c3h,hc
     128       9      62      59      61  # c,c3h,o3e
     129      18      63      62      61  # hc,c,o3e
     130      18      64      62      61  # hc,c,o3e
     131      17      63      62      64  # hc,c,hc
     132       1      65      51      69  # c,c,c
     133      17      66      65      67  # hc,c,hc
     134      17      66      65      68  # hc,c,hc
     135      17      67      65      68  # hc,c,hc
     136      11      69      72      73  # c,oc,c
     137      19      70      69      72  # hc,c,oc
     138      17      70      69      71  # hc,c,hc
     139      19      71      69      72  # hc,c,oc
     140      16      76      73      72  # c3h,c,oc
     141      19      74      73      72  # hc,c,oc
     142      19      75      73      72  # hc,c,oc
     143       9      73      76      78  # c,c3h,o3e
     144       8      73      76      77  # c,c3h,hc
     145       7      73      76      79  # c,c3h,c
     146      14      76      73      74  # c3h,c,hc
     147      17      74      73      75  # hc,c,hc
     148      14      76      73      75  # c3h,c,hc
     149      10      79      78      76  # c,o3e,c3h
     150      15      76      79      78  # c3h,c,o3e
     151      14      76      79      80  # c3h,c,hc
     152      14      76      79      81  # c3h,c,hc
     153      21      77      76      78  # hc,c3h,o3e
     154       8      79      76      77  # c,c3h,hc
     155       9      79      76      78  # c,c3h,o3e
     156      18      80      79      78  # hc,c,o3e
     157      18      81      79      78  # hc,c,o3e
     158      17      80      79      81  # hc,c,hc

Dihedrals

       1       6       1       5      11      12  # c,c1,oc,c
       2       5       1       5       7       8  # c,c1,c,hc
       3       5       1       5       7       9  # c,c1,c,hc
       4       5       1       5       7      10  # c,c1,c,hc
       5      20       2       1       5      11  # hc,c,c1,oc
       6       5       7       5       1       2  # c,c1,c,hc
       7      19       2       1       5       6  # hc,c,c1,hc
       8      20       3       1       5      11  # hc,c,c1,oc
       9       5       7       5       1       3  # c,c1,c,hc
      10      19       3       1       5       6  # hc,c,c1,hc
      11      20       4       1       5      11  # hc,c,c1,oc
      12       5       7       5       1       4  # c,c1,c,hc
      13      19       4       1       5       6  # hc,c,c1,hc
      14       4      15      12      11       5  # c,c,oc,c1
      15      15       5      11      12      13  # c1,oc,c,hc
      16      15       5      11      12      14  # c1,oc,c,hc
      17      14      12      11       5       6  # c,oc,c1,hc
      18      19       8       7       5       6  # hc,c,c1,hc
      19      19       9       7       5       6  # hc,c,c1,hc
      20      19      10       7       5       6  # hc,c,c1,hc
      21       6       7       5      11      12  # c,c1,oc,c
      22      20       8       7       5      11  # hc,c,c1,oc
      23      20       9       7       5      11  # hc,c,c1,oc
      24      20      10       7       5      11  # hc,c,c1,oc
      25       2      18      15      12      11  # c,c,c,oc
      26      18      16      15      12      11  # hc,c,c,oc
      27      18      17      15      12      11  # hc,c,c,oc
      28       2      12      15      18      21  # c,c,c,oc
      29       1      12      15      18      19  # c,c,c,hc
      30       1      12      15      18      20  # c,c,c,hc
      31       1      18      15      12      13  # c,c,c,hc
      32      17      13      12      15      16  # hc,c,c,hc
      33      17      13      12      15      17  # hc,c,c,hc
      34       1      18      15      12      14  # c,c,c,hc
      35      17      14      12      15      16  # hc,c,c,hc
      36      17      14      12      15      17  # hc,c,c,hc
      37       3      15      18      21      22  # c,c,oc,c
      38      18      16      15      18      21  # hc,c,c,oc
      39      17      16      15      18      19  # hc,c,c,hc
      40      17      16      15      18      20  # hc,c,c,hc
      41      18      17      15      18      21  # hc,c,c,oc
      42      17      17      15      18      19  # hc,c,c,hc
      43      17      17      15      18      20  # hc,c,c,hc
      44       3      25      22      21      18  # c,c,oc,c
      45      13      18      21      22      23  # c,oc,c,hc
      46      13      18      21      22      24  # c,oc,c,hc
      47      13      22      21      18      19  # c,oc,c,hc
      48      13      22      21      18      20  # c,oc,c,hc
      49       2      34      25      22      21  # c,c,c,oc
      50       2      26      25      22      21  # c,c,c,oc
      51       2      30      25      22      21  # c,c,c,oc
      52       2      22      25      34      37  # c,c,c,oc
      53       1      22      25      34      35  # c,c,c,hc
      54       1      22      25      34      36  # c,c,c,hc
      55       1      22      25      26      27  # c,c,c,hc
      56       1      22      25      26      28  # c,c,c,hc
      57       1      22      25      26      29  # c,c,c,hc
      58       1      22      25      30      31  # c,c,c,hc
      59       1      22      25      30      32  # c,c,c,hc
      60       1      22      25      30      33  # c,c,c,hc
      61       1      34      25      22      23  # c,c,c,hc
      62       1      26      25      22      23  # c,c,c,hc
      63       1      30      25      22      23  # c,c,c,hc
      64       1      34      25      22      24  # c,c,c,hc
      65       1      26      25      22      24  # c,c,c,hc
      66       1      30      25      22      24  # c,c,c,hc
      67       3      25      34      37      38  # c,c,oc,c
      68       2      26      25      34      37  # c,c,c,oc
      69       1      26      25      34      35  # c,c,c,hc
      70       1      26      25      34      36  # c,c,c,hc
      71       1      26      25      30      31  # c,c,c,hc
      72       1      26      25      30      32  # c,c,c,hc
      73       1      26      25      30      33  # c,c,c,hc
      74       1      34      25      26      27  # c,c,c,hc
      75       1      30      25      26      27  # c,c,c,hc
      76       1      34      25      26      28  # c,c,c,hc
      77       1      30      25      26      28  # c,c,c,hc
      78       1      34      25      26      29  # c,c,c,hc
      79       1      30      25      26      29  # c,c,c,hc
      80       2      30      25      34      37  # c,c,c,oc
      81       1      30      25      34      35  # c,c,c,hc
      82       1      30      25      34      36  # c,c,c,hc
      83       1      34      25      30      31  # c,c,c,hc
      84       1      34      25      30      32  # c,c,c,hc
      85       1      34      25      30      33  # c,c,c,hc
      86      12      34      37      38      41  # c,oc,c,c3h
      87      13      34      37      38      39  # c,oc,c,hc
      88      13      34      37      38      40  # c,oc,c,hc
      89      13      38      37      34      35  # c,oc,c,hc
      90      13      38      37      34      36  # c,oc,c,hc
      91      25      43      41      38      37  # o3e,c3h,c,oc
      92      24      42      41      38      37  # hc,c3h,c,oc
      93       9      44      41      38      37  # c,c3h,c,oc
      94      10      38      41      43      44  # c,c3h,o3e,c
      95       8      38      41      44      43  # c,c3h,c,o3e
      96       7      38      41      44      45  # c,c3h,c,hc
      97       7      38      41      44      46  # c,c3h,c,hc
      98      22      39      38      41      43  # hc,c,c3h,o3e
      99      21      39      38      41      42  # hc,c,c3h,hc
     100       7      44      41      38      39  # c,c3h,c,hc
     101      22      40      38      41      43  # hc,c,c3h,o3e
     102      21      40      38      41      42  # hc,c,c3h,hc
     103       7      44      41      38      40  # c,c3h,c,hc
     104      16      41      43      44      45  # c3h,o3e,c,hc
     105      16      41      43      44      46  # c3h,o3e,c,hc
     106      11      44      43      41      42  # c,o3e,c3h,hc
     107      23      42      41      44      43  # hc,c3h,c,o3e
     108      21      45      44      41      42  # hc,c,c3h,hc
     109      21      46      44      41      42  # hc,c,c3h,hc
     110      22      45      44      41      43  # hc,c,c3h,o3e
     111      22      46      44      41      43  # hc,c,c3h,o3e
     112       2      47      51      69      72  # c,c,c,oc
     113       1      47      51      69      70  # c,c,c,hc
     114       1      47      51      69      71  # c,c,c,hc
     115       2      47      51      52      55  # c,c,c,oc
     116       1      47      51      52      53  # c,c,c,hc
     117       1      47      51      52      54  # c,c,c,hc
     118       1      47      51      65      66  # c,c,c,hc
     119       1      47      51      65      67  # c,c,c,hc
     120       1      47      51      65      68  # c,c,c,hc
     121       1      69      51      47      48  # c,c,c,hc
     122       1      52      51      47      48  # c,c,c,hc
     123       1      65      51      47      48  # c,c,c,hc
     124       1      69      51      47      49  # c,c,c,hc
     125       1      52      51      47      49  # c,c,c,hc
     126       1      65      51      47      49  # c,c,c,hc
     127       1      69      51      47      50  # c,c,c,hc
     128       1      52      51      47      50  # c,c,c,hc
     129       1      65      51      47      50  # c,c,c,hc
     130       3      51      69      72      73  # c,c,oc,c
     131       3      51      52      55      56  # c,c,oc,c
     132       2      52      51      69      72  # c,c,c,oc
     133       1      52      51      69      70  # c,c,c,hc
     134       1      52      51      69      71  # c,c,c,hc
     135       1      52      51      65      66  # c,c,c,hc
     136       1      52      51      65      67  # c,c,c,hc
     137       1      52      51      65      68  # c,c,c,hc
     138      12      52      55      56      59  # c,oc,c,c3h
     139      13      52      55      56      57  # c,oc,c,hc
     140      13      52      55      56      58  # c,oc,c,hc
     141       1      69      51      52      53  # c,c,c,hc
     142       1      65      51      52      53  # c,c,c,hc
     143      13      56      55      52      53  # c,oc,c,hc
     144       1      69      51      52      54  # c,c,c,hc
     145       1      65      51      52      54  # c,c,c,hc
     146      13      56      55      52      54  # c,oc,c,hc
     147       2      69      51      52      55  # c,c,c,oc
     148       2      65      51      52      55  # c,c,c,oc
     149      25      61      59      56      55  # o3e,c3h,c,oc
     150      24      60      59      56      55  # hc,c3h,c,oc
     151       9      62      59      56      55  # c,c3h,c,oc
     152      10      56      59      61      62  # c,c3h,o3e,c
     153       8      56      59      62      61  # c,c3h,c,o3e
     154       7      56      59      62      63  # c,c3h,c,hc
     155       7      56      59      62      64  # c,c3h,c,hc
     156      22      57      56      59      61  # hc,c,c3h,o3e
     157      21      57      56      59      60  # hc,c,c3h,hc
     158       7      62      59      56      57  # c,c3h,c,hc
     159      22      58      56      59      61  # hc,c,c3h,o3e
     160      21      58      56      59      60  # hc,c,c3h,hc
     161       7      62      59      56      58  # c,c3h,c,hc
     162      16      59      61      62      63  # c3h,o3e,c,hc
     163      16      59      61      62      64  # c3h,o3e,c,hc
     164      11      62      61      59      60  # c,o3e,c3h,hc
     165      23      60      59      62      61  # hc,c3h,c,o3e
     166      21      63      62      59      60  # hc,c,c3h,hc
     167      21      64      62      59      60  # hc,c,c3h,hc
     168      22      63      62      59      61  # hc,c,c3h,o3e
     169      22      64      62      59      61  # hc,c,c3h,o3e
     170       2      65      51      69      72  # c,c,c,oc
     171       1      65      51      69      70  # c,c,c,hc
     172       1      65      51      69      71  # c,c,c,hc
     173       1      69      51      65      66  # c,c,c,hc
     174       1      69      51      65      67  # c,c,c,hc
     175       1      69      51      65      68  # c,c,c,hc
     176      12      69      72      73      76  # c,oc,c,c3h
     177      13      69      72      73      74  # c,oc,c,hc
     178      13      69      72      73      75  # c,oc,c,hc
     179      13      73      72      69      70  # c,oc,c,hc
     180      13      73      72      69      71  # c,oc,c,hc
     181      25      78      76      73      72  # o3e,c3h,c,oc