LAMMPS (22 Dec 2022)
# PREREQUISITES:
#
#     You must use moltemplate.sh to create 3 files:
#        system.data  system.in.init  system.in.settings
#     (Follow the instructions in README_setup.sh,
#      or run the file as a script using ./README_setup.sh)

# ------------------------------- Initialization Section --------------------

units real
atom_style full
pair_style lj/class2/coul/long 10.0 10.0
bond_style class2
angle_style class2
dihedral_style class2
improper_style class2
kspace_style pppm/cg 0.001

pair_modify     mix sixthpower tail yes
special_bonds   lj/coul 0 0 1


# ------------------------------- Atom Definition Section -------------------

read_data       "reacted_lmp.data"
Reading data file ...
  orthogonal box = (4.6950134 4.6950134 4.6950134) to (44.041964 44.041964 44.041964)
  2 by 3 by 4 MPI processor grid
  reading atoms ...
  5032 atoms
  reading velocities ...
  5032 velocities
  scanning bonds ...
  4 = max bonds/atom
  scanning angles ...
  6 = max angles/atom
  scanning dihedrals ...
  36 = max dihedrals/atom
  scanning impropers ...
  4 = max impropers/atom
  reading bonds ...
  5176 bonds
  reading angles ...
  9424 angles
  reading dihedrals ...
  13200 dihedrals
  reading impropers ...
  5168 impropers
Finding 1-2 1-3 1-4 neighbors ...
  special bond factors lj:    0        0        1       
  special bond factors coul:  0        0        1       
     4 = max # of 1-2 neighbors
    12 = max # of 1-3 neighbors
    16 = max # of special neighbors
  special bonds CPU = 0.004 seconds
  read_data CPU = 0.361 seconds

include calc.pram

# Masses

mass		1    12.01115  # c
mass		2    12.01115  # cp
mass		3     1.00797  # h
mass		4     1.00797  # hc
mass		5    15.99940  # o4e
mass		6    15.99940  # oc
mass		7    15.99940  # oh

# Potentials

pair_coeff	 1  1    0.05400    4.01000  # c,c
pair_coeff	 2  2    0.06400    4.01000  # cp,cp
pair_coeff	 3  3    0.02000    2.99500  # h,h
pair_coeff	 4  4    0.02000    2.99500  # hc,hc
pair_coeff	 5  5    0.24000    3.53500  # o4e,o4e
pair_coeff	 6  6    0.24000    3.53500  # oc,oc
pair_coeff	 7  7    0.24000    3.53500  # oh,oh

# Bond Coeffs

bond_coeff	1    1.53000  299.67000 -501.77000  679.81000  # c,c
bond_coeff	2    1.50100  321.90210 -521.82080  572.16280  # c,cp
bond_coeff	3    1.10100  345.00000 -691.89000  844.60000  # c,hc
bond_coeff	4    1.42000  400.39540 -835.19510 1313.01420  # c,o4e
bond_coeff	5    1.42000  400.39540 -835.19510 1313.01420  # c,oc
bond_coeff	6    1.42000  400.39540 -835.19510 1313.01420  # c,oh
bond_coeff	7    1.41700  470.83610 -627.61790 1327.63450  # cp,cp
bond_coeff	8    1.09820  372.82510 -803.45260  894.31730  # cp,hc
bond_coeff	9    0.96000  493.84800    0.00000    0.00000  # h,oh

# Angle Coeffs

angle_coeff	 1  112.67000   39.51600   -7.44300   -9.55830  # c,c,c
angle_coeff	 2  110.77000   41.45300  -10.60400    5.12900  # c,c,hc
angle_coeff	 3  111.27000   54.53810   -8.36420  -13.08380  # c,c,o4e
angle_coeff	 4  111.27000   54.53810   -8.36420  -13.08380  # c,c,oc
angle_coeff	 5  111.27000   54.53810   -8.36420  -13.08380  # c,c,oh
angle_coeff	 6  120.05000   44.71480  -22.73520    0.00000  # c,cp,cp
angle_coeff	 7  104.50000   35.74540  -10.00670   -6.27290  # c,o4e,c
angle_coeff	 8  104.50000   35.74540  -10.00670   -6.27290  # c,oc,c
angle_coeff	 9  109.00000   58.50000    0.00000    0.00000  # c,oh,h
angle_coeff	10  111.00000   44.32340   -9.44540    0.00000  # cp,c,hc
angle_coeff	11  110.50000   46.00000    0.00000    0.00000  # cp,c,oc
angle_coeff	12  118.90000   61.02260  -34.99310    0.00000  # cp,cp,cp
angle_coeff	13  117.94000   35.15580  -12.46820    0.00000  # cp,cp,hc
angle_coeff	14  107.66000   39.64100  -12.92100   -2.43180  # hc,c,hc
angle_coeff	15  108.72800   58.54460  -10.80880  -12.40060  # hc,c,o4e
angle_coeff	16  108.72800   58.54460  -10.80880  -12.40060  # hc,c,oc
angle_coeff	17  108.72800   58.54460  -10.80880  -12.40060  # hc,c,oh

# BondBond Coeffs

angle_coeff	 1 bb    0.00000    1.53000    1.53000  # c,c,c
angle_coeff	 2 bb    3.38720    1.53000    1.10100  # c,c,hc
angle_coeff	 3 bb   11.43180    1.53000    1.42000  # c,c,o4e
angle_coeff	 4 bb   11.43180    1.53000    1.42000  # c,c,oc
angle_coeff	 5 bb   11.43180    1.53000    1.42000  # c,c,oh
angle_coeff	 6 bb   12.06760    1.50100    1.41700  # c,cp,cp
angle_coeff	 7 bb   -7.11310    1.42000    1.42000  # c,o4e,c
angle_coeff	 8 bb   -7.11310    1.42000    1.42000  # c,oc,c
angle_coeff	 9 bb    0.00000    1.42000    0.96000  # c,oh,h
angle_coeff	10 bb    2.91680    1.50100    1.10100  # cp,c,hc
angle_coeff	11 bb    0.00000    1.50100    1.42000  # cp,c,oc
angle_coeff	12 bb   68.28560    1.41700    1.41700  # cp,cp,cp
angle_coeff	13 bb    1.07950    1.41700    1.09820  # cp,cp,hc
angle_coeff	14 bb    5.33160    1.10100    1.10100  # hc,c,hc
angle_coeff	15 bb   23.19790    1.10100    1.42000  # hc,c,o4e
angle_coeff	16 bb   23.19790    1.10100    1.42000  # hc,c,oc
angle_coeff	17 bb   23.19790    1.10100    1.42000  # hc,c,oh

# BondAngle Coeffs

angle_coeff	 1 ba    8.01600    8.01600    1.53000    1.53000  # c,c,c
angle_coeff	 2 ba   20.75400   11.42100    1.53000    1.10100  # c,c,hc
angle_coeff	 3 ba    2.68680   20.40330    1.53000    1.42000  # c,c,o4e
angle_coeff	 4 ba    2.68680   20.40330    1.53000    1.42000  # c,c,oc
angle_coeff	 5 ba    2.68680   20.40330    1.53000    1.42000  # c,c,oh
angle_coeff	 6 ba   47.05790   31.07710    1.50100    1.41700  # c,cp,cp
angle_coeff	 7 ba   -2.81120   -2.81120    1.42000    1.42000  # c,o4e,c
angle_coeff	 8 ba   -2.81120   -2.81120    1.42000    1.42000  # c,oc,c
angle_coeff	 9 ba    0.00000    0.00000    1.42000    0.96000  # c,oh,h
angle_coeff	10 ba   11.77170   26.46080    1.50100    1.10100  # cp,c,hc
angle_coeff	11 ba    0.00000    0.00000    1.50100    1.42000  # cp,c,oc
angle_coeff	12 ba   28.87080   28.87080    1.41700    1.41700  # cp,cp,cp
angle_coeff	13 ba   24.21830   20.00330    1.41700    1.09820  # cp,cp,hc
angle_coeff	14 ba   18.10300   18.10300    1.10100    1.10100  # hc,c,hc
angle_coeff	15 ba    4.61890   55.32700    1.10100    1.42000  # hc,c,o4e
angle_coeff	16 ba    4.61890   55.32700    1.10100    1.42000  # hc,c,oc
angle_coeff	17 ba    4.61890   55.32700    1.10100    1.42000  # hc,c,oh

# Dihedral Coeffs

dihedral_coeff	 1    0.00000    0.00000    0.05140    0.00000   -0.14300    0.00000  # c,c,c,c
dihedral_coeff	 2    0.00000    0.00000    0.03160    0.00000   -0.16810    0.00000  # c,c,c,hc
dihedral_coeff	 3    0.71370    0.00000    0.26600    0.00000   -0.25450    0.00000  # c,c,c,o4e
dihedral_coeff	 4    0.71370    0.00000    0.26600    0.00000   -0.25450    0.00000  # c,c,c,oc
dihedral_coeff	 5    0.71370    0.00000    0.26600    0.00000   -0.25450    0.00000  # c,c,c,oh
dihedral_coeff	 6   -0.52030    0.00000   -0.30280    0.00000   -0.34500    0.00000  # c,c,o4e,c
dihedral_coeff	 7   -0.52030    0.00000   -0.30280    0.00000   -0.34500    0.00000  # c,c,oc,c
dihedral_coeff	 8    0.00000    0.00000    0.00000    0.00000    0.13000  180.00000  # c,c,oh,h
dihedral_coeff	 9    0.00000    0.00000    4.40720    0.00000    0.00000    0.00000  # c,cp,cp,cp
dihedral_coeff	10    0.00000    0.00000    1.55900    0.00000    0.00000    0.00000  # c,cp,cp,hc
dihedral_coeff	11    0.53020    0.00000    0.00000    0.00000   -0.39660    0.00000  # c,o4e,c,hc
dihedral_coeff	12    0.00000    0.00000    0.00000    0.00000    0.13000  180.00000  # c,oc,c,cp
dihedral_coeff	13    0.53020    0.00000    0.00000    0.00000   -0.39660    0.00000  # c,oc,c,hc
dihedral_coeff	14   -0.28010    0.00000   -0.06780    0.00000   -0.01220    0.00000  # cp,cp,c,hc
dihedral_coeff	15    0.00000  180.00000    0.00000    0.00000    0.00000    0.00000  # cp,cp,c,oc
dihedral_coeff	16    8.36670    0.00000    1.19320    0.00000    0.00000    0.00000  # cp,cp,cp,cp
dihedral_coeff	17    0.00000    0.00000    3.96610    0.00000    0.00000    0.00000  # cp,cp,cp,hc
dihedral_coeff	18    0.00000    0.00000    0.00000    0.00000    0.13000  180.00000  # h,oh,c,hc
dihedral_coeff	19   -0.14320    0.00000    0.06170    0.00000   -0.10830    0.00000  # hc,c,c,hc
dihedral_coeff	20    0.00000    0.00000    1.87690    0.00000    0.00000    0.00000  # hc,cp,cp,hc

# MiddleBondTorsion Coeffs

dihedral_coeff	 1 mbt  -17.78700   -7.18770    0.00000    1.53000  # c,c,c,c
dihedral_coeff	 2 mbt  -14.87900   -3.65810   -0.31380    1.53000  # c,c,c,hc
dihedral_coeff	 3 mbt  -21.88420   -7.67640   -0.68680    1.53000  # c,c,c,o4e
dihedral_coeff	 4 mbt  -21.88420   -7.67640   -0.68680    1.53000  # c,c,c,oc
dihedral_coeff	 5 mbt  -21.88420   -7.67640   -0.68680    1.53000  # c,c,c,oh
dihedral_coeff	 6 mbt   -5.92880   -2.70070   -0.31750    1.42000  # c,c,o4e,c
dihedral_coeff	 7 mbt   -5.92880   -2.70070   -0.31750    1.42000  # c,c,oc,c
dihedral_coeff	 8 mbt    0.00000    0.00000    0.00000    1.42000  # c,c,oh,h
dihedral_coeff	 9 mbt    0.00000    9.17920    0.00000    1.41700  # c,cp,cp,cp
dihedral_coeff	10 mbt    0.00000    3.94210    0.00000    1.41700  # c,cp,cp,hc
dihedral_coeff	11 mbt   -6.80070   -4.65460   -1.41010    1.42000  # c,o4e,c,hc
dihedral_coeff	12 mbt    0.00000    0.00000    0.00000    1.42000  # c,oc,c,cp
dihedral_coeff	13 mbt   -6.80070   -4.65460   -1.41010    1.42000  # c,oc,c,hc
dihedral_coeff	14 mbt   -5.56790    1.40830    0.30100    1.50100  # cp,cp,c,hc
dihedral_coeff	15 mbt    0.00000    0.00000    0.00000    1.50100  # cp,cp,c,oc
dihedral_coeff	16 mbt   27.59890   -2.31200    0.00000    1.41700  # cp,cp,cp,cp
dihedral_coeff	17 mbt    0.00000   -1.15210    0.00000    1.41700  # cp,cp,cp,hc
dihedral_coeff	18 mbt    0.00000    0.00000    0.00000    1.42000  # h,oh,c,hc
dihedral_coeff	19 mbt  -14.26100   -0.53220   -0.48640    1.53000  # hc,c,c,hc
dihedral_coeff	20 mbt    0.00000    4.82280    0.00000    1.41700  # hc,cp,cp,hc

# EndBondTorsion Coeffs

dihedral_coeff	 1 ebt   -0.07320    0.00000    0.00000   -0.07320    0.00000    0.00000    1.53000    1.53000  # c,c,c,c
dihedral_coeff	 2 ebt    0.24860    0.24220   -0.09250    0.08140    0.05910    0.22190    1.53000    1.10100  # c,c,c,hc
dihedral_coeff	 3 ebt   -0.31900    0.44110   -0.71740    1.15380    0.84090   -0.91380    1.53000    1.42000  # c,c,c,o4e
dihedral_coeff	 4 ebt   -0.31900    0.44110   -0.71740    1.15380    0.84090   -0.91380    1.53000    1.42000  # c,c,c,oc
dihedral_coeff	 5 ebt   -0.31900    0.44110   -0.71740    1.15380    0.84090   -0.91380    1.53000    1.42000  # c,c,c,oh
dihedral_coeff	 6 ebt   -0.24560    1.05170   -0.77950    0.47410    1.26350    0.55760    1.53000    1.42000  # c,c,o4e,c
dihedral_coeff	 7 ebt   -0.24560    1.05170   -0.77950    0.47410    1.26350    0.55760    1.53000    1.42000  # c,c,oc,c
dihedral_coeff	 8 ebt    0.00000    0.00000    0.00000    0.00000    0.00000    0.00000    1.53000    0.96000  # c,c,oh,h
dihedral_coeff	 9 ebt    0.00000    0.24210    0.00000    0.00000   -0.69180    0.00000    1.50100    1.41700  # c,cp,cp,cp
dihedral_coeff	10 ebt    0.00000   -1.79700    0.00000    0.00000   -0.48790    0.00000    1.50100    1.09820  # c,cp,cp,hc
dihedral_coeff	11 ebt   -0.16200    0.15640   -1.14080   -0.60540    1.33390    0.96480    1.42000    1.10100  # c,o4e,c,hc
dihedral_coeff	12 ebt    0.00000    0.00000    0.00000    0.00000    0.00000    0.00000    1.42000    1.50100  # c,oc,c,cp
dihedral_coeff	13 ebt   -0.16200    0.15640   -1.14080   -0.60540    1.33390    0.96480    1.42000    1.10100  # c,oc,c,hc
dihedral_coeff	14 ebt    1.39970    0.77560    0.00000   -0.58350    1.12200    0.39780    1.41700    1.10100  # cp,cp,c,hc
dihedral_coeff	15 ebt    0.00000    0.00000    0.00000    0.00000    0.00000    0.00000    1.41700    1.42000  # cp,cp,c,oc
dihedral_coeff	16 ebt   -0.11850    6.32040    0.00000   -0.11850    6.32040    0.00000    1.41700    1.41700  # cp,cp,cp,cp
dihedral_coeff	17 ebt    0.00000   -0.46690    0.00000    0.00000   -6.89580    0.00000    1.41700    1.09820  # cp,cp,cp,hc
dihedral_coeff	18 ebt    0.00000    0.00000    0.00000    0.00000    0.00000    0.00000    0.96000    1.10100  # h,oh,c,hc
dihedral_coeff	19 ebt    0.21300    0.31200    0.07770    0.21300    0.31200    0.07770    1.10100    1.10100  # hc,c,c,hc
dihedral_coeff	20 ebt    0.00000   -0.68900    0.00000    0.00000   -0.68900    0.00000    1.09820    1.09820  # hc,cp,cp,hc

# AngleTorsion Coeffs

dihedral_coeff	 1 at    0.38860   -0.31390    0.13890    0.38860   -0.31390    0.13890  112.67000  112.67000  # c,c,c,c
dihedral_coeff	 2 at   -0.24540    0.00000   -0.11360    0.31130    0.45160   -0.19880  112.67000  110.77000  # c,c,c,hc
dihedral_coeff	 3 at    0.56230   -0.30410   -0.40150    0.96720   -0.75660   -1.23310  112.67000  111.27000  # c,c,c,o4e
dihedral_coeff	 4 at    0.56230   -0.30410   -0.40150    0.96720   -0.75660   -1.23310  112.67000  111.27000  # c,c,c,oc
dihedral_coeff	 5 at    0.56230   -0.30410   -0.40150    0.96720   -0.75660   -1.23310  112.67000  111.27000  # c,c,c,oh
dihedral_coeff	 6 at   -2.74660    1.48770   -0.89550    0.56760    0.94500    0.07030  111.27000  104.50000  # c,c,o4e,c
dihedral_coeff	 7 at   -2.74660    1.48770   -0.89550    0.56760    0.94500    0.07030  111.27000  104.50000  # c,c,oc,c
dihedral_coeff	 8 at    0.00000    0.00000    0.00000    0.00000    0.00000    0.00000  111.27000  109.00000  # c,c,oh,h
dihedral_coeff	 9 at    0.00000   -4.46830    0.00000    0.00000    3.89870    0.00000  120.05000  118.90000  # c,cp,cp,cp
dihedral_coeff	10 at    0.00000   -0.12420    0.00000    0.00000    3.46010    0.00000  120.05000  117.94000  # c,cp,cp,hc
dihedral_coeff	11 at   -0.77770    0.43400   -0.66530   -1.82340    1.63930    0.51440  104.50000  108.72800  # c,o4e,c,hc
dihedral_coeff	12 at    0.00000    0.00000    0.00000    0.00000    0.00000    0.00000  104.50000  110.50000  # c,oc,c,cp
dihedral_coeff	13 at   -0.77770    0.43400   -0.66530   -1.82340    1.63930    0.51440  104.50000  108.72800  # c,oc,c,hc
dihedral_coeff	14 at    4.62660    0.16320    0.04610    0.22510    0.65480    0.12370  120.05000  111.00000  # cp,cp,c,hc
dihedral_coeff	15 at    0.00000    0.00000    0.00000    0.00000    0.00000    0.00000  120.05000  110.50000  # cp,cp,c,oc
dihedral_coeff	16 at    1.97670    1.02390    0.00000    1.97670    1.02390    0.00000  118.90000  118.90000  # cp,cp,cp,cp
dihedral_coeff	17 at    0.00000    2.71470    0.00000    0.00000    2.50140    0.00000  118.90000  117.94000  # cp,cp,cp,hc
dihedral_coeff	18 at    0.00000    0.00000    0.00000    0.00000    0.00000    0.00000  109.00000  108.72800  # h,oh,c,hc
dihedral_coeff	19 at   -0.80850    0.55690   -0.24660   -0.80850    0.55690   -0.24660  110.77000  110.77000  # hc,c,c,hc
dihedral_coeff	20 at    0.00000    2.45010    0.00000    0.00000    2.45010    0.00000  117.94000  117.94000  # hc,cp,cp,hc

# AngleAngleTorsion Coeffs

dihedral_coeff	 1 aat  -22.04500  112.67000  112.67000  # c,c,c,c
dihedral_coeff	 2 aat  -16.16400  112.67000  110.77000  # c,c,c,hc
dihedral_coeff	 3 aat  -29.04200  112.67000  111.27000  # c,c,c,o4e
dihedral_coeff	 4 aat  -29.04200  112.67000  111.27000  # c,c,c,oc
dihedral_coeff	 5 aat  -29.04200  112.67000  111.27000  # c,c,c,oh
dihedral_coeff	 6 aat  -19.00590  111.27000  104.50000  # c,c,o4e,c
dihedral_coeff	 7 aat  -19.00590  111.27000  104.50000  # c,c,oc,c
dihedral_coeff	 8 aat    0.00000  111.27000  109.00000  # c,c,oh,h
dihedral_coeff	 9 aat  -14.40970  120.05000  118.90000  # c,cp,cp,cp
dihedral_coeff	10 aat    4.44440  120.05000  117.94000  # c,cp,cp,hc
dihedral_coeff	11 aat  -16.44380  104.50000  108.72800  # c,o4e,c,hc
dihedral_coeff	12 aat    0.00000  104.50000  110.50000  # c,oc,c,cp
dihedral_coeff	13 aat  -16.44380  104.50000  108.72800  # c,oc,c,hc
dihedral_coeff	14 aat   -5.88880  120.05000  111.00000  # cp,cp,c,hc
dihedral_coeff	15 aat    0.00000  120.05000  110.50000  # cp,cp,c,oc
dihedral_coeff	16 aat    0.00000  118.90000  118.90000  # cp,cp,cp,cp
dihedral_coeff	17 aat   -4.81410  118.90000  117.94000  # cp,cp,cp,hc
dihedral_coeff	18 aat    0.00000  109.00000  108.72800  # h,oh,c,hc
dihedral_coeff	19 aat  -12.56400  110.77000  110.77000  # hc,c,c,hc
dihedral_coeff	20 aat    0.35980  117.94000  117.94000  # hc,cp,cp,hc

# BondBond13 Coeffs

dihedral_coeff	 1 bb13    0.00000    1.53000    1.53000  # c,c,c,c
dihedral_coeff	 2 bb13    0.00000    1.53000    1.10100  # c,c,c,hc
dihedral_coeff	 3 bb13    0.00000    1.53000    1.42000  # c,c,c,o4e
dihedral_coeff	 4 bb13    0.00000    1.53000    1.42000  # c,c,c,oc
dihedral_coeff	 5 bb13    0.00000    1.53000    1.42000  # c,c,c,oh
dihedral_coeff	 6 bb13    0.00000    1.53000    1.42000  # c,c,o4e,c
dihedral_coeff	 7 bb13    0.00000    1.53000    1.42000  # c,c,oc,c
dihedral_coeff	 8 bb13    0.00000    1.53000    0.96000  # c,c,oh,h
dihedral_coeff	 9 bb13    2.50850    1.50100    1.41700  # c,cp,cp,cp
dihedral_coeff	10 bb13    0.87430    1.50100    1.09820  # c,cp,cp,hc
dihedral_coeff	11 bb13    0.00000    1.42000    1.10100  # c,o4e,c,hc
dihedral_coeff	12 bb13    0.00000    1.42000    1.50100  # c,oc,c,cp
dihedral_coeff	13 bb13    0.00000    1.42000    1.10100  # c,oc,c,hc
dihedral_coeff	14 bb13   -3.48260    1.41700    1.10100  # cp,cp,c,hc
dihedral_coeff	15 bb13    0.00000    1.41700    1.42000  # cp,cp,c,oc
dihedral_coeff	16 bb13   53.00000    1.41700    1.41700  # cp,cp,cp,cp
dihedral_coeff	17 bb13   -6.27410    1.41700    1.09820  # cp,cp,cp,hc
dihedral_coeff	18 bb13    0.00000    0.96000    1.10100  # h,oh,c,hc
dihedral_coeff	19 bb13    0.00000    1.10100    1.10100  # hc,c,c,hc
dihedral_coeff	20 bb13   -1.70770    1.09820    1.09820  # hc,cp,cp,hc

# Improper Coeffs

improper_coeff	 1    0.00000    0.00000  # c,c,c,c
improper_coeff	 2    0.00000    0.00000  # c,c,c,hc
improper_coeff	 3    0.00000    0.00000  # c,c,hc,hc
improper_coeff	 4    0.00000    0.00000  # c,c,hc,o4e
improper_coeff	 5    0.00000    0.00000  # c,c,hc,oc
improper_coeff	 6    0.00000    0.00000  # c,c,o4e,hc
improper_coeff	 7    0.00000    0.00000  # c,c,oc,hc
improper_coeff	 8    0.00000    0.00000  # c,c,oh,hc
improper_coeff	 9    0.00000    0.00000  # c,cp,hc,hc
improper_coeff	10    0.00000    0.00000  # c,cp,hc,oc
improper_coeff	11    0.00000    0.00000  # c,hc,hc,hc
improper_coeff	12    0.00000    0.00000  # c,hc,hc,o4e
improper_coeff	13    0.00000    0.00000  # c,hc,hc,oc
improper_coeff	14    0.00000    0.00000  # c,hc,hc,oh
improper_coeff	15    7.81530    0.00000  # cp,c,cp,cp
improper_coeff	16    4.89120    0.00000  # cp,cp,cp,hc

# AngleAngle Coeffs

improper_coeff	 1 aa   -0.17290   -0.17290   -0.17290  112.67000  112.67000  112.67000  # c,c,c,c
improper_coeff	 2 aa   -1.31990   -1.31990    0.11840  112.67000  110.77000  110.77000  # c,c,c,hc
improper_coeff	 3 aa    0.27380   -0.48250    0.27380  110.77000  110.77000  107.66000  # c,c,hc,hc
improper_coeff	 4 aa    3.91770    2.59260    0.16890  110.77000  111.27000  108.72800  # c,c,hc,o4e
improper_coeff	 5 aa    3.91770    2.59260    0.16890  110.77000  111.27000  108.72800  # c,c,hc,oc
improper_coeff	 6 aa    0.16890    2.59260    3.91770  111.27000  110.77000  108.72800  # c,c,o4e,hc
improper_coeff	 7 aa    0.16890    2.59260    3.91770  111.27000  110.77000  108.72800  # c,c,oc,hc
improper_coeff	 8 aa    0.16890    2.59260    3.91770  111.27000  110.77000  108.72800  # c,c,oh,hc
improper_coeff	 9 aa    0.00000    3.01180    0.00000  111.00000  111.00000  107.66000  # c,cp,hc,hc
improper_coeff	10 aa    0.00000    0.00000    0.00000  111.00000  110.50000  108.72800  # c,cp,hc,oc
improper_coeff	11 aa   -0.31570   -0.31570   -0.31570  107.66000  107.66000  107.66000  # c,hc,hc,hc
improper_coeff	12 aa    2.42590    2.42590    2.12830  107.66000  108.72800  108.72800  # c,hc,hc,o4e
improper_coeff	13 aa    2.42590    2.42590    2.12830  107.66000  108.72800  108.72800  # c,hc,hc,oc
improper_coeff	14 aa    2.42590    2.42590    2.12830  107.66000  108.72800  108.72800  # c,hc,hc,oh
improper_coeff	15 aa    0.00000    0.00000    0.00000  120.05000  120.05000  118.90000  # cp,c,cp,cp
improper_coeff	16 aa    0.00000    0.00000    0.00000  118.90000  117.94000  117.94000  # cp,cp,cp,hc

# ------------------------------- OPT Section -------------------------------
minimize 1.0e-5 1.0e-7 100000 400000
PPPM initialization ...
  using 12-bit tables for long-range coulomb (../kspace.cpp:342)
  G vector (1/distance) = 0.11353295
  grid = 4 4 4
  stencil order = 5
  estimated absolute RMS force accuracy = 0.2854615
  estimated relative force accuracy = 0.00085965884
  using double precision KISS FFT
  3d grid and FFT values/proc = 294 4
Generated 21 of 21 mixed pair_coeff terms from sixthpower/sixthpower mixing rule
Neighbor list info ...
  update: every = 1 steps, delay = 0 steps, check = yes
  max neighbors/atom: 2000, page size: 100000
  master list distance cutoff = 12
  ghost atom cutoff = 12
  binsize = 6, bins = 7 7 7
  1 neighbor lists, perpetual/occasional/extra = 1 0 0
  (1) pair lj/class2/coul/long, perpetual
      attributes: half, newton on
      pair build: half/bin/newton
      stencil: half/bin/3d
      bin: standard
WARNING: Inconsistent image flags (../domain.cpp:815)
  PPPM/cg optimization cutoff: 1e-05
  Total charged atoms: 94.0%
  Min/max charged atoms/proc: 92.9% 95.1%
Per MPI rank memory allocation (min/avg/max) = 23.34 | 23.35 | 23.36 Mbytes
   Step          Temp          E_pair         E_mol          TotEng         Press     
         0   613.80584      2034.4913      6632.7163      17872.119      1070.9874    
        91   613.80584      1295.6324     -1547.1477      8953.3966      4253.2162    
Loop time of 1.03915 on 24 procs for 91 steps with 5032 atoms

99.3% CPU use with 24 MPI tasks x no OpenMP threads

Minimization stats:
  Stopping criterion = linesearch alpha is zero
  Energy initial, next-to-last, final = 
      8667.20763499674  -251.515247992996  -251.515247992996
  Force two-norm initial, final = 3411.6474 68.561654
  Force max component initial, final = 172.97552 5.9412446
  Final line search alpha, max atom move = 1.7425444e-12 1.0352882e-11
  Iterations, force evaluations = 91 252

MPI task timing breakdown:
Section |  min time  |  avg time  |  max time  |%varavg| %total
---------------------------------------------------------------
Pair    | 0.45084    | 0.58791    | 0.75904    |   9.8 | 56.58
Bond    | 0.12454    | 0.15014    | 0.18623    |   4.4 | 14.45
Kspace  | 0.052991   | 0.25259    | 0.40545    |  17.0 | 24.31
Neigh   | 0.0086414  | 0.0086547  | 0.0086734  |   0.0 |  0.83
Comm    | 0.032105   | 0.033317   | 0.035342   |   0.5 |  3.21
Output  | 0          | 0          | 0          |   0.0 |  0.00
Modify  | 0          | 0          | 0          |   0.0 |  0.00
Other   |            | 0.006538   |            |       |  0.63

Nlocal:        209.667 ave         237 max         172 min
Histogram: 1 1 1 3 4 4 2 2 1 5
Nghost:        4323.42 ave        4424 max        4243 min
Histogram: 1 4 2 4 4 2 4 1 0 2
Neighs:        62714.3 ave       79357 max       48211 min
Histogram: 1 1 5 5 2 2 3 1 3 1

Total # of neighbors = 1505143
Ave neighs/atom = 299.11427
Ave special neighs/atom = 5.8028617
Neighbor list builds = 3
Dangerous builds = 0
# ------------------------------- Run Section -------------------------------
#

timestep 0.25
neighbor        2.0 bin
neigh_modify    delay 0 every 1 check yes

thermo_style custom step temp pe evdwl ecoul ebond eangle edihed eimp density vol
thermo 20000

variable        Rho equal density
variable        Temp equal temp
variable        Volume equal vol
fix             fDENS all ave/time 100 100 300000 v_Temp v_Rho v_Volume file temp_vs_density.txt
fix def1 all print 100 "${Temp} ${Rho} ${Volume} " file press.dat screen no

label           loop
variable        a loop 26
variable        b equal 600-20*($a-1)
variable        b equal 600-20*(1-1)
fix             fMOM all momentum 100 linear 1 1 1 angular
fix             fNPT all npt temp $b $b $(100.0*dt) iso 1 1 $(100.0*dt)
fix             fNPT all npt temp 600 $b $(100.0*dt) iso 1 1 $(100.0*dt)
fix             fNPT all npt temp 600 600 $(100.0*dt) iso 1 1 $(100.0*dt)
fix             fNPT all npt temp 600 600 25 iso 1 1 $(100.0*dt)
fix             fNPT all npt temp 600 600 25 iso 1 1 25
run             1200000
PPPM initialization ...
  using 12-bit tables for long-range coulomb (../kspace.cpp:342)
  G vector (1/distance) = 0.11353295
  grid = 4 4 4
  stencil order = 5
  estimated absolute RMS force accuracy = 0.2854615
  estimated relative force accuracy = 0.00085965884
  using double precision KISS FFT
  3d grid and FFT values/proc = 294 4
Generated 21 of 21 mixed pair_coeff terms from sixthpower/sixthpower mixing rule
WARNING: Inconsistent image flags (../domain.cpp:815)
Per MPI rank memory allocation (min/avg/max) = 22.22 | 22.23 | 22.24 Mbytes
   Step          Temp          PotEng         E_vdwl         E_coul         E_bond        E_angle        E_dihed        E_impro        Density         Volume    
        91   613.80584     -251.51525     -16.525297      2609.4807      703.09573      996.93312     -3248.3377      1.1611634      0.85517509     60916.259    
     20000   598.18371      8708.8151      795.3703       2622.5081      3908.3762      4594.6119     -2039.9071      124.80945      0.81562844     63869.851    
     40000   600.39156      8508.3353      697.91396      2613.0303      3908.6928      4650.2609     -2178.0525      113.57751      0.85210141     61135.995    
     60000   594.06936      8568.7908      602.59827      2587.3706      4068.136       4600.8903     -2098.5372      104.8556       0.87338672     59646.049    
     80000   587.29726      8506.2822      588.02169      2599.2755      4036.8249      4530.1615     -2063.9604      113.17213      0.86521262     60209.556    
    100000   583.13889      8621.5996      550.55465      2600.4327      4153.9289      4480.5386     -1997.7615      130.5294       0.84963786     61313.26     
    120000   592.34463      8583.0585      657.53814      2610.0227      4172.2047      4358.3695     -2041.2139      123.13301      0.85206545     61138.575    
    140000   605.40409      8583.9921      547.12808      2596.7704      4104.3334      4626.507      -2123.0958      129.13593      0.86667883     60107.696    
    160000   599.10665      8422.8526      568.50245      2613.1255      4019.2089      4570.5824     -2170.3052      119.01524      0.88018432     59185.407    
    180000   601.02659      8505.0376      604.86052      2597.0999      4099.4872      4550.1185     -2163.6962      114.52267      0.87580764     59481.175    
    200000   601.97788      8461.9532      678.17755      2628.1235      4060.5287      4423.2355     -2140.0877      108.99009      0.86481188     60237.456    
    220000   596.6471       8450.6289      506.53355      2581.1776      4070.7002      4525.8086     -2064.0689      127.83333      0.87873481     59283.036    
    240000   604.6352       8621.5478      661.2496       2611.7847      4071.5178      4581.6804     -2128.1197      120.76339      0.86777321     60031.891    
    260000   588.93639      8423.9891      515.035        2635.7412      4108.7384      4468.6347     -2125.9887      119.04358      0.84772783     61451.406    
    280000   607.8273       8383.0313      532.60649      2600.0164      4166.6659      4443.207      -2181.5699      119.98228      0.86307577     60358.626    
    300000   595.59161      8617.556       608.06828      2610.202       4089.5736      4516.6122     -2048.2057      138.69844      0.87906007     59261.101    
    320000   588.58097      8527.6215      608.28735      2595.491       4203.7123      4402.2149     -2106.6834      121.81981      0.85821348     60700.593    
    340000   587.90918      8472.5703      635.0125       2587.1932      4099.9564      4326.3173     -2006.237       128.13254      0.87283036     59684.069    
    360000   600.71603      8509.8491      628.08356      2597.4623      4207.0313      4316.1147     -2066.108       124.0302       0.8653096      60202.808    
    380000   606.52561      8529.9148      586.09135      2606.968       4323.0428      4459.009      -2270.9614      123.13042      0.85278136     61087.249    
    400000   592.84693      8615.1953      631.31893      2596.5915      4282.6194      4494.5118     -2206.0517      112.97479      0.85391812     61005.928    
    420000   597.67603      8348.6853      606.24948      2567.9037      4016.288       4375.0811     -2048.4866      128.5556       0.85249838     61107.527    
    440000   600.84051      8649.7521      630.00891      2599.9264      4091.7446      4584.6309     -2083.3983      122.90997      0.85390461     61006.893    
    460000   603.14981      8457.1459      636.63145      2596.9107      3976.1459      4544.9974     -2116.6549      116.54504      0.87024886     59861.116    
    480000   598.07483      8479.7513      655.85999      2582.2258      4035.6412      4443.7127     -2070.8436      129.52529      0.87030506     59857.25     
    500000   592.19551      8393.5984      651.416        2594.6917      4045.4698      4375.9924     -2096.6851      120.03441      0.86033566     60550.864    
    520000   592.83902      8477.3354      587.75712      2603.7838      4175.4277      4401.6742     -2125.3093      131.30316      0.86039123     60546.953    
    540000   601.99679      8471.9381      631.23233      2585.9274      4056.3344      4433.5544     -2070.2527      132.40089      0.87134867     59785.559    
    560000   586.7399       8543.4808      693.44565      2612.58        4084.7439      4551.6029     -2233.0218      131.10125      0.84722951     61487.551    
    580000   611.77211      8377.1428      617.09316      2610.3347      4035.0815      4386.8826     -2097.6705      122.90633      0.84959899     61316.065    
    600000   615.45652      8424.8414      589.58215      2579.9338      4185.5165      4388.2784     -2142.8203      121.79009      0.88414841     58920.049    
    620000   603.55309      8459.8186      641.32641      2606.9426      4221.2857      4416.7537     -2239.6029      110.51803      0.86883723     59958.374    
    640000   591.12696      8536.0091      562.57865      2600.8555      4139.7833      4552.2446     -2134.9529      113.08362      0.8679272      60021.241    
    660000   589.67467      8442.2148      605.50447      2576.5688      4112.9165      4398.1684     -2075.3247      121.61875      0.86386956     60303.164    
    680000   596.0279       8436.7681      625.99391      2578.9816      4155.3699      4380.1354     -2131.2713      124.86133      0.87165045     59764.86     
    700000   608.83148      8594.709       575.06173      2585.4296      4138.8913      4513.9202     -2060.6636      137.93755      0.86974256     59895.962    
    720000   599.5396       8214.1611      602.55583      2602.0945      3972.3533      4352.9238     -2143.9945      125.76616      0.87483308     59547.437    
    740000   599.17612      8125.2688      634.9721       2598.7136      3776.2494      4406.2335     -2121.703       127.70673      0.86634706     60130.714    
    760000   610.89423      8351.798       665.31427      2611.7476      3965.2905      4370.1779     -2088.2559      124.58672      0.87753898     59363.822    
    780000   597.99133      8449.8943      516.4704       2582.1893      4148.213       4421.3472     -2046.6718      125.52367      0.86232663     60411.062    
    800000   592.85135      8621.8362      605.65253      2566.1589      4212.0411      4539.2829     -2121.3009      117.05003      0.87629433     59448.14     
    820000   601.89849      8455.6007      541.93558      2558.3259      4126.2239      4538.8596     -2140.1346      128.3543       0.88168472     59084.689    
    840000   590.82925      8396.2594      591.38834      2571.1011      4125.4451      4443.783      -2147.4727      108.51525      0.86215261     60423.255    
    860000   593.3496       8590.9531      551.77519      2612.281       4087.6372      4529.3841     -2021.7396      128.25492      0.86498874     60225.139    
    880000   584.72814      8457.6707      628.89007      2614.4642      4055.4576      4518.2985     -2171.4356      109.14284      0.83389897     62470.478    
    900000   600.61181      8462.5498      636.975        2602.4754      4068.0875      4507.7136     -2173.6206      118.00023      0.8558456      60868.534    
    920000   592.85883      8548.2847      672.76111      2589.7527      4117.3223      4481.4695     -2137.7637      120.28546      0.86267669     60386.548    
    940000   607.83455      8518.0373      694.91963      2580.7883      4055.9586      4511.0238     -2148.1167      120.62722      0.86234649     60409.671    
    960000   607.43105      8602.579       670.08178      2559.7989      4171.7956      4540.3162     -2162.2779      119.48853      0.86708112     60079.808    
    980000   605.92077      8605.5397      649.90921      2630.1685      4076.8841      4501.8595     -2089.1932      132.0746       0.85411245     60992.048    
   1000000   600.53596      8349.1719      580.09448      2608.8555      4000.523       4353.8586     -2024.3405      127.13771      0.86423905     60277.382    
   1020000   599.02168      8490.2104      654.70547      2580.1657      4100.1909      4471.7986     -2142.1029      120.91661      0.8448177      61663.087    
   1040000   597.586        8551.8954      631.8989       2613.0505      4092.4892      4493.3242     -2102.5062      120.06361      0.87185912     59750.556    
   1060000   589.68083      8413.3754      564.1593       2604.8181      4102.8867      4505.1044     -2180.5468      113.02824      0.86625543     60137.074    
   1080000   602.92859      8435.2511      605.18696      2584.0644      4058.2225      4472.5759     -2112.0858      123.88537      0.86159333     60462.478    
   1100000   596.8613       8478.3663      554.48017      2615.1225      4045.3514      4499.5315     -2060.4468      120.99094      0.87168613     59762.414    
   1120000   605.47638      8562.9192      683.64143      2620.4385      4101.7339      4500.9247     -2170.6277      123.17768      0.84785618     61442.104    
   1140000   604.22271      8468.9541      617.91263      2601.1153      4007.6157      4533.8001     -2115.4908      120.30886      0.87523398     59520.161    
   1160000   599.53011      8376.0823      533.84459      2611.0132      4073.2609      4421.2369     -2089.936       124.11465      0.87787581     59341.045    
   1180000   602.58673      8504.9318      631.37767      2584.9792      4096.89        4505.0341     -2145.8476      128.95404      0.86160779     60461.463    
   1200000   607.59621      8701.3555      568.06117      2616.3109      4107.8196      4658.2294     -2083.6984      131.38559      0.85085491     61225.559    
   1200091   609.36587      8836.166       634.91672      2619.6652      4246.9645      4610.0401     -2117.2906      139.38279      0.85325373     61053.43     
Loop time of 3664.66 on 24 procs for 1200000 steps with 5032 atoms

Performance: 7.073 ns/day, 3.393 hours/ns, 327.452 timesteps/s, 1.648 Matom-step/s
99.5% CPU use with 24 MPI tasks x no OpenMP threads

MPI task timing breakdown:
Section |  min time  |  avg time  |  max time  |%varavg| %total
---------------------------------------------------------------
Pair    | 1675       | 1884.8     | 2073.1     | 282.1 | 51.43
Bond    | 557.5      | 638.62     | 721.1      | 152.0 | 17.43
Kspace  | 678.42     | 916.99     | 1152.1     | 476.7 | 25.02
Neigh   | 55.386     | 55.422     | 55.453     |   0.2 |  1.51
Comm    | 120.15     | 122.51     | 124.96     |  12.1 |  3.34
Output  | 0.0030044  | 0.0048667  | 0.046719   |  12.5 |  0.00
Modify  | 32.328     | 33.949     | 35.537     |  16.5 |  0.93
Other   |            | 12.35      |            |       |  0.34

Nlocal:        209.667 ave         242 max         175 min
Histogram: 1 1 2 5 3 2 3 4 2 1
Nghost:        4282.38 ave        4350 max        4214 min
Histogram: 1 4 2 2 2 1 8 2 0 2
Neighs:        62307.5 ave       77797 max       50128 min
Histogram: 3 4 1 2 4 4 1 2 1 2

Total # of neighbors = 1495379
Ave neighs/atom = 297.17389
Ave special neighs/atom = 5.8028617
Neighbor list builds = 19254
Dangerous builds = 0
unfix           fNPT
unfix           fMOM
next            a
jump            SELF loop
variable        a loop 26
variable        b equal 600-20*($a-1)
variable        b equal 600-20*(2-1)
fix             fMOM all momentum 100 linear 1 1 1 angular
fix             fNPT all npt temp $b $b $(100.0*dt) iso 1 1 $(100.0*dt)
fix             fNPT all npt temp 580 $b $(100.0*dt) iso 1 1 $(100.0*dt)
fix             fNPT all npt temp 580 580 $(100.0*dt) iso 1 1 $(100.0*dt)
fix             fNPT all npt temp 580 580 25 iso 1 1 $(100.0*dt)
fix             fNPT all npt temp 580 580 25 iso 1 1 25
run             1200000
PPPM initialization ...
  using 12-bit tables for long-range coulomb (../kspace.cpp:342)
  G vector (1/distance) = 0.11347049
  grid = 4 4 4
  stencil order = 5
  estimated absolute RMS force accuracy = 0.28554522
  estimated relative force accuracy = 0.00085991095
  using double precision KISS FFT
  3d grid and FFT values/proc = 294 4
Generated 21 of 21 mixed pair_coeff terms from sixthpower/sixthpower mixing rule
WARNING: Inconsistent image flags (../domain.cpp:815)
Per MPI rank memory allocation (min/avg/max) = 22.22 | 22.25 | 22.61 Mbytes
   Step          Temp          PotEng         E_vdwl         E_coul         E_bond        E_angle        E_dihed        E_impro        Density         Volume    
   1200091   609.36587      8836.1828      634.91672      2618.969       4246.9645      4610.0401     -2117.2906      139.38279      0.85325373     61053.43     
   1220000   580.96987      8268.2515      590.23258      2588.9419      4112.5097      4265.7862     -2111.8815      119.15902      0.87597314     59469.937    
   1240000   576.79119      8378.7873      657.90271      2605.9088      4033.2082      4400.2907     -2158.7932      136.47477      0.85465232     60953.52     
   1260000   577.23877      8089.0264      651.39174      2603.6282      3917.445       4279.4313     -2180.1295      114.14256      0.87618941     59455.258    
   1280000   584.40839      8112.51        554.30464      2602.3964      4085.2227      4284.5753     -2231.5927      114.09116      0.8806395      59154.816    
   1300000   569.07704      8243.4064      493.98554      2552.2574      4081.2628      4396.5662     -2115.179       130.5511       0.89521086     58191.952    
   1320000   584.90584      8033.9978      499.32693      2603.4871      3997.4631      4329.2521     -2220.2582      120.4881       0.87654001     59431.477    
   1340000   572.44424      8193.2249      427.09647      2618.4283      4009.3354      4405.4643     -2090.5206      119.62316      0.88320338     58983.093    
   1360000   571.60643      8229.6762      549.27344      2616.2005      3885.8098      4416.8095     -2059.7518      115.84106      0.86611026     60147.154    
   1380000   580.69668      8068.2268      491.8035       2618.2375      3950.9796      4344.2941     -2164.7542      123.54729      0.88646947     58765.777    
   1400000   581.20055      8202.9336      616.47496      2604.462       4003.7899      4272.0678     -2119.5222      122.42501      0.87756296     59362.2      
   1420000   582.85584      8453.345       639.22986      2598.6636      4066.7808      4419.7411     -2104.9034      130.31559      0.87969681     59218.207    
   1440000   586.44496      8148.16        537.82999      2577.2164      4001.8842      4381.1782     -2160.969       107.87732      0.88243511     59034.446    
   1460000   585.10043      8014.1437      486.29827      2583.8498      4055.392       4223.9662     -2154.367       115.63386      0.888436       58635.701    
   1480000   581.75149      8074.4333      623.47886      2580.9146      3951.2023      4298.6691     -2183.5445      100.79419      0.88460786     58889.447    
   1500000   587.33867      8206.515       570.778        2612.8558      4043.8432      4282.9867     -2124.8311      117.30064      0.86905125     59943.608    
   1520000   577.63238      8131.5871      582.07787      2612.5567      3892.3451      4354.511      -2121.1464      107.97309      0.88200644     59063.137    
   1540000   574.78086      8099.6886      506.1644       2604.8555      3866.6044      4536.6042     -2226.2342      108.35943      0.88163391     59088.094    
   1560000   577.76909      8146.0921      548.82922      2589.5659      4117.1171      4263.2565     -2192.7065      116.26549      0.87461142     59562.528    
   1580000   579.82502      8261.6011      604.06975      2595.952       4043.7963      4325.6923     -2121.0445      107.63506      0.87218777     59728.041    
   1600000   581.68236      8070.3056      685.1677       2618.197       3835.0876      4256.7921     -2142.2055      113.77581      0.85546405     60895.683    
   1620000   586.92371      8212.9666      589.36848      2586.9937      4000.2809      4344.6696     -2135.9112      123.97114      0.86187794     60442.512    
   1640000   576.82416      8036.3386      603.42201      2613.58        3811.5086      4310.4818     -2127.2572      120.61809      0.86568418     60176.758    
   1660000   587.23917      8306.4787      612.25777      2591.4174      4129.4958      4385.2902     -2230.9923      115.48145      0.86094902     60507.726    
   1680000   576.91167      8355.6705      601.71327      2601.2815      4112.7975      4323.9388     -2105.5127      117.6129       0.84145709     61909.357    
   1700000   574.11806      8116.3429      625.74197      2594.2281      3958.7823      4289.4064     -2166.0491      109.3516       0.85535609     60903.369    
   1720000   569.45303      8242.28        613.78564      2582.5328      4026.6436      4402.0109     -2208.7809      122.5596       0.86386889     60303.21     
   1740000   569.91006      8181.5719      584.22688      2607.4159      3838.3418      4408.1599     -2078.5506      118.22988      0.86610368     60147.611    
   1760000   572.40482      8196.3248      635.66222      2601.929       4004.3763      4329.7696     -2190.3458      111.8956       0.86608421     60148.964    
   1780000   585.15201      8276.0299      562.47843      2583.7015      3862.8695      4480.1321     -2048.5234      131.64191      0.86446038     60261.949    
   1800000   583.9957       8440.651       626.22485      2602.424       4065.3722      4412.0424     -2101.5279      132.47545      0.86393589     60298.534    
   1820000   589.99438      8161.4267      606.73762      2560.4716      4081.4769      4325.7552     -2236.0647      119.30548      0.87451978     59568.77     
   1840000   572.30061      8270.8042      615.40166      2615.8733      4034.4645      4325.919      -2145.2502      120.85582      0.87475191     59552.962    
   1860000   572.56858      8057.1952      559.23906      2598.9515      4005.3492      4202.899      -2123.0823      110.60745      0.87431948     59582.416    
   1880000   576.38626      8222.8471      576.85771      2590.7438      4000.6289      4390.1474     -2154.1231      115.33965      0.88308649     58990.9      
   1900000   589.99674      8150.6103      642.6576       2623.4052      3868.6581      4367.2503     -2174.9934      120.02188      0.84085564     61953.639    
   1920000   574.21749      8175.367       662.31188      2600.0412      3989.1147      4282.693      -2175.0289      112.17913      0.87550466     59501.759    
   1940000   589.90057      8280.5015      566.94972      2605.4608      4109.3003      4443.293      -2261.7172      113.482        0.87280833     59685.576    
   1960000   574.93607      8150.9447      584.75105      2575.9767      3945.0233      4326.6633     -2102.8784      117.72711      0.86668737     60107.104    
   1980000   583.64353      8039.4476      697.43712      2560.0432      3870.7435      4206.8221     -2132.2629      132.72277      0.86950221     59912.519    
   2000000   580.22614      7930.7657      538.40046      2592.2898      3823.2035      4277.1861     -2113.8027      110.06191      0.8674914      60051.394    
   2020000   588.46566      8227.683       514.01378      2614.7186      3924.1845      4450.7776     -2098.0053      118.83338      0.87053708     59841.296    
   2040000   582.07261      8313.7835      662.41061      2596.7874      4054.5301      4295.4734     -2123.2653      124.72642      0.85008687     61280.875    
   2060000   580.4171       8337.8661      635.01187      2582.969       4125.6143      4281.2692     -2122.0438      131.41229      0.86229686     60413.148    
   2080000   580.83431      8114.7209      653.48642      2580.4836      3940.6321      4270.5265     -2155.5961      120.43001      0.85616101     60846.11     
   2100000   576.33575      8344.8825      617.18585      2584.0058      4027.1712      4418.272      -2130.7485      125.82345      0.87414092     59594.587    
   2120000   565.83363      8144.8939      599.2577       2597.9091      3875.6995      4389.9        -2145.963       123.85943      0.88623363     58781.416    
   2140000   582.24313      8456.7577      593.57265      2592.7449      3983.4161      4513.4284     -2069.2658      138.34169      0.86575551     60171.8      
   2160000   580.49295      8181.3431      582.55694      2571.1698      3941.6973      4344.1533     -2082.7676      121.16852      0.87899483     59265.5      
   2180000   581.57498      8177.4984      550.14809      2613.8844      3853.121       4539.1765     -2196.6529      114.64842      0.86442448     60264.452    
   2200000   579.19074      8271.2171      563.13099      2589.6642      4059.1208      4387.1193     -2156.754       124.89112      0.87016733     59866.724    
   2220000   578.77488      8227.9287      597.66243      2581.8262      4093.5777      4317.9929     -2190.075       123.41013      0.86171861     60453.687    
   2240000   575.22985      8255.2612      622.83549      2605.8262      3915.4012      4431.5362     -2142.2676      118.15347      0.85741009     60757.47     
   2260000   586.7186       7972.4705      471.62087      2571.9329      4064.6088      4292.0599     -2252.6598      120.67223      0.87461223     59562.473    
   2280000   577.04937      8127.3921      599.63446      2584.5399      3970.4187      4312.9004     -2163.173       119.71232      0.86764213     60040.962    
   2300000   576.77285      8116.1274      586.63976      2574.8411      3978.7864      4313.4368     -2146.7585      104.90072      0.86582783     60166.774    
   2320000   583.11949      8135.6572      516.81133      2595.9444      3960.2228      4437.1315     -2191.0413      113.1699       0.87059024     59837.643    
   2340000   577.25712      8238.707       560.50733      2580.2126      3978.7397      4418.3116     -2123.9871      120.80378      0.88123435     59114.885    
   2360000   583.94621      8294.9865      584.53305      2591.5172      4058.2546      4354.7695     -2127.6828      129.45983      0.87764437     59356.693    
   2380000   567.1419       8172.7168      537.79919      2586.8688      3917.4873      4329.4297     -2031.6316      129.11487      0.89678296     58089.939    
   2400000   589.91858      8029.6302      555.54986      2604.8153      4008.0554      4218.1153     -2162.7148      102.83236      0.87367321     59626.49     
   2400091   592.57269      7967.1318      582.31542      2575.7136      3853.5274      4265.681      -2121.949       108.82743      0.86977382     59893.81     
Loop time of 3717.08 on 24 procs for 1200000 steps with 5032 atoms

Performance: 6.973 ns/day, 3.442 hours/ns, 322.834 timesteps/s, 1.625 Matom-step/s
99.5% CPU use with 24 MPI tasks x no OpenMP threads

MPI task timing breakdown:
Section |  min time  |  avg time  |  max time  |%varavg| %total
---------------------------------------------------------------
Pair    | 1685.7     | 1913.3     | 2205       | 313.3 | 51.47
Bond    | 548.82     | 635.08     | 705.91     | 149.2 | 17.09
Kspace  | 591.76     | 946.53     | 1211.6     | 518.3 | 25.46
Neigh   | 52.703     | 52.733     | 52.759     |   0.2 |  1.42
Comm    | 121        | 123.09     | 125.41     |  12.3 |  3.31
Output  | 0.0040035  | 0.004522   | 0.015968   |   3.5 |  0.00
Modify  | 32.267     | 33.922     | 35.087     |  15.1 |  0.91
Other   |            | 12.39      |            |       |  0.33

Nlocal:        209.667 ave         243 max         169 min
Histogram: 1 0 0 4 6 2 7 1 2 1
Nghost:        4381.38 ave        4480 max        4311 min
Histogram: 1 4 3 4 3 4 3 1 0 1
Neighs:        63930.7 ave       73677 max       50300 min
Histogram: 1 1 1 4 4 0 4 2 4 3

Total # of neighbors = 1534336
Ave neighs/atom = 304.91574
Ave special neighs/atom = 5.8028617
Neighbor list builds = 18605
Dangerous builds = 0
unfix           fNPT
unfix           fMOM
next            a
jump            SELF loop
variable        a loop 26
variable        b equal 600-20*($a-1)
variable        b equal 600-20*(3-1)
fix             fMOM all momentum 100 linear 1 1 1 angular
fix             fNPT all npt temp $b $b $(100.0*dt) iso 1 1 $(100.0*dt)
fix             fNPT all npt temp 560 $b $(100.0*dt) iso 1 1 $(100.0*dt)
fix             fNPT all npt temp 560 560 $(100.0*dt) iso 1 1 $(100.0*dt)
fix             fNPT all npt temp 560 560 25 iso 1 1 $(100.0*dt)
fix             fNPT all npt temp 560 560 25 iso 1 1 25
run             1200000
PPPM initialization ...
  using 12-bit tables for long-range coulomb (../kspace.cpp:342)
  G vector (1/distance) = 0.11400359
  grid = 4 4 4
  stencil order = 5
  estimated absolute RMS force accuracy = 0.2848213
  estimated relative force accuracy = 0.00085773088
  using double precision KISS FFT
  3d grid and FFT values/proc = 294 4
Generated 21 of 21 mixed pair_coeff terms from sixthpower/sixthpower mixing rule
WARNING: Inconsistent image flags (../domain.cpp:815)
Per MPI rank memory allocation (min/avg/max) = 22.22 | 22.28 | 22.61 Mbytes
   Step          Temp          PotEng         E_vdwl         E_coul         E_bond        E_angle        E_dihed        E_impro        Density         Volume    
   2400091   592.57269      7967.386       582.31542      2582.0533      3853.5274      4265.681      -2121.949       108.82743      0.86977382     59893.81     
   2420000   549.82749      7861.9456      493.74265      2596.433       3894.7733      4276.6656     -2223.2932      125.81281      0.88485126     58873.247    
   2440000   569.02153      7818.188       562.49674      2605.2361      3862.4808      4150.4685     -2172.9641      113.13496      0.88202567     59061.85     
   2460000   546.75056      7769.4193      538.28415      2611.019       3784.2677      4274.961      -2247.0468      111.03195      0.86627612     60135.638    
   2480000   555.6722       7736.8737      578.25721      2588.7016      3776.5666      4236.4455     -2254.5062      113.83998      0.87733069     59377.915    
   2500000   559.86494      7681.6618      466.42194      2583.9797      3826.458       4169.838      -2164.951       102.51181      0.88182975     59074.971    
   2520000   562.47512      7684.9718      461.36008      2613.672       3711.4047      4232.0714     -2140.5662      109.86908      0.89357811     58298.281    
   2540000   573.68956      7896.854       539.71553      2611.1418      3921.9467      4164.4645     -2148.1342      110.55023      0.87100206     59809.35     
   2560000   553.79403      7840.3062      508.49153      2602.5722      3948.7243      4150.1968     -2188.4547      121.07704      0.88253614     59027.688    
   2580000   555.85478      7748.1115      575.67182      2610.8116      3695.7305      4214.9947     -2151.0649      105.14927      0.88634704     58773.895    
   2600000   564.61451      7718.4693      500.42308      2605.5568      3802.2171      4180.9646     -2181.8992      113.97961      0.87014797     59868.056    
   2620000   558.27695      7851.9042      633.92572      2607.3998      3740.9262      4222.4704     -2167.5003      117.62287      0.8840477      58926.761    
   2640000   554.91397      7879.9024      492.58117      2584.5237      3845.2077      4312.975      -2161.8812      108.84038      0.88641836     58769.166    
   2660000   556.07433      7821.9136      597.83375      2590.9789      3915.7748      4172.5866     -2268.3234      116.40616      0.87589943     59474.942    
   2680000   563.65952      7802.1295      564.40244      2601.8437      3829.0012      4183.2897     -2200.5458      126.60368      0.87988348     59205.643    
   2700000   564.43016      7886.408       517.18929      2597.606       3917.0718      4309.4206     -2261.94        109.40505      0.88678402     58744.932    
   2720000   560.00584      7888.6188      601.46126      2602.4048      3917.2863      4256.0591     -2302.6069      116.56941      0.86197705     60435.562    
   2740000   566.33808      7784.9322      543.41044      2591.5232      3780.1872      4228.2044     -2171.9462      116.48517      0.88599891     58796.988    
   2760000   551.48808      7820.9245      546.58293      2607.9005      3797.3922      4258.4034     -2198.559       111.62532      0.87901115     59264.399    
   2780000   561.61918      8019.2757      658.85464      2592.2957      3863.1519      4353.2925     -2262.7589      117.82425      0.84998216     61288.425    
   2800000   560.0838       7840.0249      485.83024      2611.8524      3878.2285      4300.8284     -2238.2399      103.89662      0.89187198     58409.804    
   2820000   557.98908      7674.2037      539.65367      2586.7742      3870.6935      4117.6937     -2258.5164      120.65506      0.8894698      58567.55     
   2840000   555.96374      7788.3182      474.53545      2565.5706      3889.7748      4315.1651     -2263.967       109.30377      0.89310401     58329.228    
   2860000   550.52509      7793.508       539.97301      2590.2697      3846.3792      4200.5877     -2194.2869      113.56393      0.88131987     59109.149    
   2880000   553.14338      7666.4946      541.25902      2579.2503      3768.2334      4163.3163     -2183.6742      100.96614      0.87746244     59369        
   2900000   561.23267      7678.8042      479.95194      2599.8669      3853.9467      4127.728      -2198.9959      118.36248      0.89410926     58263.648    
   2920000   555.96509      7686.3994      485.49944      2588.9431      3820.5095      4187.8371     -2203.2391      109.24281      0.88884187     58608.926    
   2940000   560.38384      7729.3562      580.00283      2602.1243      3827.8794      4202.2441     -2300.4577      119.88977      0.87987621     59206.132    
   2960000   565.46333      7890.9813      541.74801      2596.9573      3843.5555      4259.6802     -2160.3794      111.98201      0.88163806     59087.816    
   2980000   561.0893       7515.4942      528.64427      2569.2314      3762.4979      4075.1925     -2233.6238      115.55328      0.89290885     58341.977    
   3000000   558.66818      7934.3216      549.04332      2611.8488      3951.8477      4189.2497     -2170.7025      104.59705      0.86280926     60377.27     
   3020000   553.98384      7836.8297      603.61556      2578.1705      3863.2806      4174.5925     -2194.0172      114.65135      0.87301432     59671.492    
   3040000   567.21107      7719.2894      563.11256      2582.5173      3762.8793      4255.7711     -2248.2551      106.14326      0.87141256     59781.176    
   3060000   566.27133      7716.161       510.63658      2606.5701      3863.0776      4157.5451     -2225.7517      107.1651       0.8910462      58463.935    
   3080000   566.19796      7925.3949      475.7024       2566.1271      3875.0706      4333.8526     -2133.8451      110.52916      0.89391627     58276.227    
   3100000   564.13565      7791.9979      426.71847      2601.6711      3860.8464      4263.3538     -2169.0604      110.45964      0.89793067     58015.69     
   3120000   558.15912      7789.4069      493.34229      2614.0142      3789.1691      4228.6421     -2151.7708      118.61033      0.90386144     57635.015    
   3140000   559.37361      7770.8035      493.33883      2595.3747      3942.1983      4110.6372     -2197.7298      129.75628      0.90702123     57434.232    
   3160000   553.4656       7618.09        433.92202      2605.7979      3736.0969      4186.8822     -2160.0999      118.04009      0.89572909     58158.284    
   3180000   561.86713      7784.4586      570.08989      2596.3287      3790.9155      4182.6883     -2170.0358      116.88142      0.89658195     58102.962    
   3200000   557.90496      7616.523       509.13585      2580.3858      3766.4413      4082.302      -2131.6538      113.15637      0.87787655     59340.994    
   3220000   559.33562      8026.6621      486.14758      2608.7922      3951.8782      4326.0102     -2154.2052      109.63972      0.87518546     59523.461    
   3240000   565.87926      7869.2479      554.47854      2597.0638      3860.6934      4251.5792     -2213.5792      121.35972      0.88175635     59079.889    
   3260000   556.36365      7877.104       498.62073      2607.6981      3977.9926      4228.2274     -2249.4355      116.48051      0.88765038     58687.596    
   3280000   553.40372      7726.2187      437.40614      2567.6415      3813.2155      4308.6645     -2217.2301      118.98546      0.90226138     57737.224    
   3300000   568.36869      8016.4149      501.37898      2623.9833      3881.9217      4366.2635     -2164.7144      110.55628      0.87853446     59296.556    
   3320000   567.50541      7729.3688      494.0204       2599.23        3822.7649      4155.8406     -2150.2504      109.89414      0.8862519      58780.204    
   3340000   550.4947       7633.2642      575.12865      2581.7616      3765.607       4143.1004     -2240.5768      110.35174      0.8790409      59262.393    
   3360000   561.53951      7703.2634      358.97944      2569.1332      3800.4068      4267.884      -2115.7257      124.72784      0.88974475     58549.452    
   3380000   543.94193      7803.5122      482.53533      2572.316       3843.7567      4231.0638     -2143.1047      120.01349      0.89333144     58314.378    
   3400000   553.72202      7693.0523      475.16502      2599.941       3707.3568      4265.7074     -2168.6042      115.99774      0.87938027     59239.523    
   3420000   561.3083       7902.0451      540.55507      2599.84        3905.1226      4147.9776     -2097.0796      108.26688      0.87612936     59459.333    
   3440000   557.94452      7640.9368      609.93693      2601.1855      3790.0245      4136.1426     -2307.1859      113.30134      0.87648437     59435.25     
   3460000   557.86764      8216.7584      579.64495      2621.2658      3997.704       4350.1062     -2143.2136      114.29785      0.8645901      60252.908    
   3480000   556.28756      7728.997       534.83969      2603.585       3740.3104      4150.9189     -2117.9913      119.93381      0.86627506     60135.712    
   3500000   549.53556      7713.341       510.51405      2608.8979      3758.2355      4222.4863     -2208.1397      124.49093      0.88025824     59180.437    
   3520000   556.62181      7706.6196      537.51475      2572.408       3820.5608      4101.266      -2130.556       107.94667      0.8898779      58540.691    
   3540000   555.94115      7852.8607      560.26119      2596.8867      3864.8712      4221.39       -2203.4183      115.71518      0.85781663     60728.675    
   3560000   560.38368      7594.8519      533.59321      2593.2712      3912.8047      4028.4841     -2276.8031      105.76388      0.87298202     59673.7      
   3580000   567.45471      7867.8187      535.44066      2612.4131      3742.6903      4223.4994     -2065.639       122.0394       0.87048121     59845.137    
   3600000   567.53435      7889.0115      633.1345       2598.2401      3821.2029      4149.7282     -2123.2721      112.57769      0.87913566     59256.005    
   3600091   555.6231       7933.8427      601.12511      2598.8848      3736.0308      4243.2466     -2060.5431      117.6953       0.87235795     59716.39     
Loop time of 3657.52 on 24 procs for 1200000 steps with 5032 atoms

Performance: 7.087 ns/day, 3.387 hours/ns, 328.091 timesteps/s, 1.651 Matom-step/s
99.5% CPU use with 24 MPI tasks x no OpenMP threads

MPI task timing breakdown:
Section |  min time  |  avg time  |  max time  |%varavg| %total
---------------------------------------------------------------
Pair    | 1728.9     | 1937.9     | 2109.1     | 234.6 | 52.98
Bond    | 583.24     | 634.54     | 692.58     | 112.3 | 17.35
Kspace  | 679.91     | 865.04     | 1114.3     | 380.5 | 23.65
Neigh   | 50.585     | 50.633     | 50.683     |   0.5 |  1.38
Comm    | 120.82     | 123.4      | 126.47     |  13.2 |  3.37
Output  | 0.0029646  | 0.003493   | 0.015143   |   4.1 |  0.00
Modify  | 31.933     | 33.88      | 35.304     |  16.0 |  0.93
Other   |            | 12.14      |            |       |  0.33

Nlocal:        209.667 ave         240 max         178 min
Histogram: 2 1 2 5 1 3 3 3 2 2
Nghost:        4410.79 ave        4468 max        4348 min
Histogram: 1 1 3 2 1 7 4 2 2 1
Neighs:        64194.5 ave       80419 max       45701 min
Histogram: 1 0 2 2 4 7 5 1 1 1

Total # of neighbors = 1540668
Ave neighs/atom = 306.17409
Ave special neighs/atom = 5.8028617
Neighbor list builds = 17970
Dangerous builds = 0
unfix           fNPT
unfix           fMOM
next            a
jump            SELF loop
variable        a loop 26
variable        b equal 600-20*($a-1)
variable        b equal 600-20*(4-1)
fix             fMOM all momentum 100 linear 1 1 1 angular
fix             fNPT all npt temp $b $b $(100.0*dt) iso 1 1 $(100.0*dt)
fix             fNPT all npt temp 540 $b $(100.0*dt) iso 1 1 $(100.0*dt)
fix             fNPT all npt temp 540 540 $(100.0*dt) iso 1 1 $(100.0*dt)
fix             fNPT all npt temp 540 540 25 iso 1 1 $(100.0*dt)
fix             fNPT all npt temp 540 540 25 iso 1 1 25
run             1200000
PPPM initialization ...
  using 12-bit tables for long-range coulomb (../kspace.cpp:342)
  G vector (1/distance) = 0.11408618
  grid = 4 4 4
  stencil order = 5
  estimated absolute RMS force accuracy = 0.28470724
  estimated relative force accuracy = 0.0008573874
  using double precision KISS FFT
  3d grid and FFT values/proc = 294 4
Generated 21 of 21 mixed pair_coeff terms from sixthpower/sixthpower mixing rule
WARNING: Inconsistent image flags (../domain.cpp:815)
Per MPI rank memory allocation (min/avg/max) = 22.22 | 22.29 | 22.61 Mbytes
   Step          Temp          PotEng         E_vdwl         E_coul         E_bond        E_angle        E_dihed        E_impro        Density         Volume    
   3600091   555.6231       7933.8832      601.12511      2599.8675      3736.0308      4243.2466     -2060.5431      117.6953       0.87235795     59716.39     
   3620000   535.37298      7496.1337      634.61506      2569.7675      3617.1286      4050.3172     -2182.6731      109.66639      0.8698658      59887.476    
   3640000   529.54421      7517.0056      601.93631      2607.0559      3645.0499      4117.2972     -2252.0416      101.51214      0.85985286     60584.863    
   3660000   527.87699      7515.7939      494.71215      2575.8541      3723.2794      4125.5302     -2211.959       111.22121      0.8778221      59344.675    
   3680000   533.13564      7560.8969      573.77664      2612.0565      3710.7234      4041.2653     -2184.054       110.84685      0.90159759     57779.732    
   3700000   538.11823      7384.2025      442.18817      2585.6459      3717.934       4069.781      -2242.3004      113.97286      0.90347633     57659.582    
   3720000   541.89369      7401.7267      425.3431       2599.2247      3724.8165      3995.1319     -2153.4677      114.1201       0.90574085     57515.422    
   3740000   545.52037      7456.2435      467.86577      2609.6905      3676.8757      4083.9996     -2188.358       109.98685      0.88638328     58771.491    
   3760000   536.07385      7480.0468      369.24214      2582.5858      3850.9591      4025.7271     -2160.2699      114.89064      0.89345955     58306.017    
   3780000   530.57076      7400.0103      455.61377      2588.9757      3706.6807      4053.6442     -2227.1289      125.61641      0.9092799      57291.564    
   3800000   542.34695      7590.944       442.80981      2596.9854      3806.2897      4129.6411     -2184.1768      102.95697      0.89844198     57982.673    
   3820000   538.09141      7575.4985      546.83117      2611.6835      3607.8136      4160.3628     -2166.1658      118.50179      0.88215518     59053.178    
   3840000   551.81584      7471.545       463.98249      2568.8092      3715.2819      4091.1574     -2171.5713      107.40044      0.90674057     57452.009    
   3860000   530.79385      7370.9727      492.50426      2594.1617      3682.8886      4050.9109     -2252.8966      107.0234       0.88496021     58865.999    
   3880000   545.50045      7631.0013      494.27631      2578.8759      3803.4082      4106.4591     -2166.7953      118.27173      0.8912353      58451.531    
   3900000   550.91015      7671.6525      479.0854       2599.5063      3798.6732      4155.6475     -2179.7158      121.89587      0.89615713     58130.506    
   3920000   538.79596      7589.0773      455.80914      2605.9774      3640.3211      4223.1383     -2144.2459      111.64894      0.90753174     57401.923    
   3940000   546.34088      7479.3811      438.58855      2599.3644      3746.7755      4148.344      -2258.7037      108.87056      0.87603524     59465.722    
   3960000   542.40455      7391.585       566.02073      2589.7369      3569.7272      4123.5845     -2262.925       109.31348      0.89564043     58164.042    
   3980000   541.93648      7366.3341      454.75553      2609.365       3755.0883      3976.7281     -2229.3281      103.42425      0.90164778     57776.516    
   4000000   536.36521      7515.7999      487.0398       2569.4464      3739.6562      4083.7817     -2170.7578      110.37829      0.88592868     58801.649    
   4020000   538.68325      7407.3306      512.33537      2594.3009      3699.3415      4043.0123     -2243.6562      105.63886      0.89083399     58477.862    
   4040000   539.829        7450.5105      506.69753      2616.8215      3748.3381      4089.6507     -2314.4998      107.19948      0.91345911     57029.447    
   4060000   542.38201      7565.9503      479.71074      2602.918       3766.2079      4110.3078     -2193.675       103.81192      0.89823836     57995.817    
   4080000   545.23658      7460.0726      404.95427      2606.7796      3706.4965      4166.4222     -2223.5397      102.62356      0.89579266     58154.157    
   4100000   546.82107      7581.8801      504.58607      2575.8937      3827.1056      4137.4699     -2275.8465      115.35272      0.91133471     57162.387    
   4120000   540.20544      7386.4594      492.17346      2581.6874      3672.4971      4020.627      -2192.3569      115.61724      0.89303631     58333.65     
   4140000   547.88338      7464.3134      439.6887       2574.869       3854.8191      4118.4263     -2319.1887      99.413923      0.89643511     58112.48     
   4160000   540.56761      7383.9397      502.71968      2555.8508      3813.4808      4000.3098     -2296.5364      112.26808      0.8899193      58537.968    
   4180000   548.97869      7435.3744      471.29902      2614.0444      3649.3822      4190.4525     -2289.8793      103.90354      0.89564628     58163.662    
   4200000   537.40073      7512.6174      512.94889      2577.4342      3673.8792      4082.2669     -2145.3428      115.29845      0.8953674      58181.778    
   4220000   529.48118      7624.9309      503.77606      2590.424       3848.619       4217.0029     -2336.2102      103.89727      0.89759997     58037.064    
   4240000   551.07948      7459.8227      440.97938      2570.8746      3832.7015      4116.4826     -2304.6978      106.73305      0.89403563     58268.447    
   4260000   536.67411      7269.1941      418.83143      2581.5502      3706.3943      3992.8706     -2233.6559      107.3517       0.89899102     57947.261    
   4280000   539.04911      7255.7268      410.3729       2577.4         3701.7028      4072.4969     -2298.5047      95.864302      0.91340237     57032.989    
   4300000   536.76294      7392.4098      486.10849      2605.2242      3735.7643      3967.1179     -2215.6561      116.80885      0.90171018     57772.518    
   4320000   553.53028      7300.9313      466.13213      2572.9694      3687.4749      3981.2481     -2217.2231      113.64659      0.89260331     58361.947    
   4340000   542.32964      7478.9787      425.35831      2589.5483      3770.56        4112.9076     -2230.8594      114.56971      0.89444735     58241.625    
   4360000   543.52285      7544.6907      551.57506      2566.7528      3699.4024      4127.3817     -2205.7784      108.34306      0.87084325     59820.257    
   4380000   539.13274      7392.44        503.04802      2558.3791      3704.3991      4069.8648     -2255.7935      115.40647      0.88002683     59195.999    
   4400000   532.65508      7378.8056      530.26284      2567.5667      3603.0458      4106.8181     -2239.5956      113.72648      0.88473527     58880.966    
   4420000   545.1621       7527.7642      422.78856      2581.6781      3743.6289      4118.4318     -2154.1381      117.41373      0.89572734     58158.398    
   4440000   537.6212       7512.7169      470.81787      2570.6078      3811.1667      4145.0079     -2292.4109      110.67254      0.89340309     58309.701    
   4460000   552.78566      7487.9197      496.13608      2601.8537      3705.0433      4129.4269     -2247.4315      105.25248      0.89521521     58191.669    
   4480000   535.60306      7371.5391      553.14203      2580.5209      3588.7953      4010.7398     -2165.1094      106.78083      0.8880385      58661.947    
   4500000   547.52747      7375.3637      571.63238      2594.6431      3761.1044      3958.5588     -2312.7469      105.8757       0.88258599     59024.354    
   4520000   540.34662      7568.2687      448.33986      2611.6789      3677.6225      4159.4278     -2134.3826      109.36184      0.88789895     58671.167    
   4540000   536.91802      7430.5191      493.79303      2613.9062      3832.3301      4102.9403     -2412.7754      103.77546      0.88471551     58882.281    
   4560000   531.82584      7448.4633      525.00656      2602.3384      3714.1653      4026.0305     -2225.8844      110.39003      0.88459675     58890.186    
   4580000   529.95887      7649.0667      485.52769      2584.0884      3819.2521      4075.0768     -2129.107       118.46882      0.89991527     57887.747    
   4600000   546.76286      7531.741       415.9819       2582.6187      3777.4004      4143.7003     -2200.105       115.62013      0.90051001     57849.515    
   4620000   526.63962      7437.2637      511.16697      2590.5369      3680.149       4050.8331     -2202.8657      111.59178      0.8943848      58245.698    
   4640000   539.47819      7413.9314      445.56343      2587.4346      3765.3667      3911.8548     -2116.8672      124.4903       0.88620732     58783.161    
   4660000   539.82458      7462.2384      490.74454      2570.1388      3625.2003      4217.6309     -2241.7212      104.17586      0.90754811     57400.888    
   4680000   533.65844      7346.1757      375.24155      2553.0727      3689.4033      4117.8663     -2203.0985      117.20205      0.9025163      57720.916    
   4700000   542.15342      7481.7926      379.99328      2552.0223      3886.9042      4059.0832     -2201.769       109.28029      0.90899299     57309.647    
   4720000   546.37052      7462.2816      420.42133      2578.5938      3759.8028      4138.7355     -2245.7374      113.98309      0.90511        57555.51     
   4740000   539.56518      7316.3475      438.23387      2542.4615      3657.4315      4120.8923     -2260.1843      120.977        0.90584732     57508.662    
   4760000   533.52411      7408.9608      434.07212      2556.5316      3793.5032      4076.6636     -2255.5769      107.14238      0.90652549     57465.64     
   4780000   536.75665      7558.3226      456.81832      2598.7017      3789.003       4119.2313     -2220.1509      118.13357      0.89815761     58001.031    
   4800000   551.6444       7380.8242      484.85762      2570.7723      3619.9925      4048.9486     -2155.098       115.41562      0.89583642     58151.317    
   4800091   555.59307      7312.1235      378.0318       2577.3199      3632.6754      4145.0843     -2226.2677      109.20017      0.89266577     58357.864    
Loop time of 3686.62 on 24 procs for 1200000 steps with 5032 atoms

Performance: 7.031 ns/day, 3.414 hours/ns, 325.501 timesteps/s, 1.638 Matom-step/s
99.5% CPU use with 24 MPI tasks x no OpenMP threads

MPI task timing breakdown:
Section |  min time  |  avg time  |  max time  |%varavg| %total
---------------------------------------------------------------
Pair    | 1716.4     | 1966.8     | 2111.7     | 245.2 | 53.35
Bond    | 559.73     | 634.44     | 702.03     | 154.5 | 17.21
Kspace  | 682.91     | 866.42     | 1177.7     | 431.7 | 23.50
Neigh   | 48.494     | 48.582     | 48.657     |   0.8 |  1.32
Comm    | 121.77     | 124.43     | 127.16     |  12.3 |  3.38
Output  | 0.0052339  | 0.0056344  | 0.014208   |   2.4 |  0.00
Modify  | 31.61      | 33.838     | 35.391     |  17.2 |  0.92
Other   |            | 12.13      |            |       |  0.33

Nlocal:        209.667 ave         240 max         180 min
Histogram: 2 0 3 3 3 4 4 3 1 1
Nghost:        4474.04 ave        4564 max        4403 min
Histogram: 3 5 3 1 2 4 0 1 1 4
Neighs:        65420.8 ave       77000 max       58827 min
Histogram: 5 2 7 1 0 3 3 1 1 1

Total # of neighbors = 1570100
Ave neighs/atom = 312.02305
Ave special neighs/atom = 5.8028617
Neighbor list builds = 17255
Dangerous builds = 0
unfix           fNPT
unfix           fMOM
next            a
jump            SELF loop
variable        a loop 26
variable        b equal 600-20*($a-1)
variable        b equal 600-20*(5-1)
fix             fMOM all momentum 100 linear 1 1 1 angular
fix             fNPT all npt temp $b $b $(100.0*dt) iso 1 1 $(100.0*dt)
fix             fNPT all npt temp 520 $b $(100.0*dt) iso 1 1 $(100.0*dt)
fix             fNPT all npt temp 520 520 $(100.0*dt) iso 1 1 $(100.0*dt)
fix             fNPT all npt temp 520 520 25 iso 1 1 $(100.0*dt)
fix             fNPT all npt temp 520 520 25 iso 1 1 25
run             1200000
PPPM initialization ...
  using 12-bit tables for long-range coulomb (../kspace.cpp:342)
  G vector (1/distance) = 0.11472795
  grid = 4 4 4
  stencil order = 5
  estimated absolute RMS force accuracy = 0.2838038
  estimated relative force accuracy = 0.00085466671
  using double precision KISS FFT
  3d grid and FFT values/proc = 294 4
Generated 21 of 21 mixed pair_coeff terms from sixthpower/sixthpower mixing rule
WARNING: Inconsistent image flags (../domain.cpp:815)
Per MPI rank memory allocation (min/avg/max) = 22.22 | 22.29 | 22.61 Mbytes
   Step          Temp          PotEng         E_vdwl         E_coul         E_bond        E_angle        E_dihed        E_impro        Density         Volume    
   4800091   555.59307      7312.5969      378.0318       2585.1186      3632.6754      4145.0843     -2226.2677      109.20017      0.89266577     58357.864    
   4820000   517.72915      7214.5966      422.92163      2558.4884      3696.799       4088.6836     -2340.5369      99.527771      0.90382795     57637.15     
   4840000   514.56162      7030.7082      427.4277       2573.4161      3553.4019      3940.9865     -2259.2829      106.19934      0.90069953     57837.343    
   4860000   525.45761      7078.8596      462.22701      2567.9344      3590.7738      3891.0893     -2220.8727      98.48582       0.89619543     58128.022    
   4880000   519.59252      7117.927       408.41916      2609.1871      3543.9513      3963.5853     -2206.8769      111.30251      0.91078742     57196.736    
   4900000   524.19013      7080.5101      388.60611      2607.5764      3590.5803      3989.3944     -2289.0958      104.85483      0.9138169      57007.118    
   4920000   528.94175      7117.6004      379.8501       2571.9867      3582.4842      4062.8987     -2272.0303      103.66404      0.91777072     56761.527    
   4940000   530.29077      6960.9903      348.83994      2583.0845      3617.3671      3915.8666     -2296.2869      102.48191      0.91067882     57203.557    
   4960000   514.04999      6982.892       319.44843      2590.9741      3727.2289      3907.9809     -2353.1134      101.28048      0.9128802      57065.612    
   4980000   518.00116      6984.8357      358.56368      2596.9585      3671.1026      3887.8182     -2320.2758      100.97079      0.9106314      57206.535    
   5000000   508.63239      7144.3011      400.72794      2573.8581      3639.0057      3974.6707     -2235.3797      102.57192      0.90990219     57252.382    
   5020000   519.48917      6907.6412      403.56445      2570.8955      3519.0905      3873.2946     -2255.0338      106.95206      0.90415986     57615.992    
   5040000   519.91408      7196.6586      372.86664      2599.1835      3630.8511      3952.6878     -2154.1659      105.70058      0.90903218     57307.177    
   5060000   522.57401      6842.9329      437.22451      2584.5968      3470.9474      3771.6862     -2223.9017      113.60066      0.90662156     57459.551    
   5080000   520.7036       6928.8212      380.02218      2570.5172      3567.1788      3852.0894     -2233.1653      102.03134      0.89579735     58153.853    
   5100000   517.93894      7176.0197      446.88878      2602.8308      3587.617       3946.5747     -2221.3683      124.31795      0.91136791     57160.305    
   5120000   524.22619      7109.1501      369.81515      2558.1056      3652.9335      3972.9788     -2245.4169      111.62727      0.92511367     56310.991    
   5140000   520.58417      7222.965       395.08282      2563.4213      3632.0706      4109.454      -2272.5384      106.31594      0.90769291     57391.731    
   5160000   532.61547      7155.9303      418.25113      2594.0337      3593.9594      4019.9169     -2266.186       106.90864      0.91105296     57180.065    
   5180000   517.26969      7063.18        422.10794      2586.824       3513.8501      4037.6137     -2285.4453      98.672395      0.91018207     57234.777    
   5200000   505.76868      7294.306       490.18214      2583.7184      3680.5892      4036.0651     -2287.8676      102.96814      0.89887055     57955.027    
   5220000   525.47034      6999.4872      450.57497      2614.0007      3512.8139      3976.4253     -2337           92.873529      0.89990651     57888.311    
   5240000   518.68806      7043.5696      413.94823      2610.7462      3536.3882      3944.9859     -2269.648       117.52377      0.90482702     57573.51     
   5260000   523.3012       7148.8466      425.97263      2622.1334      3580.7031      4051.549      -2331.7588      110.80159      0.89607441     58135.872    
   5280000   514.97384      7246.206       412.01085      2593.7922      3712.6472      3991.7644     -2258.0379      104.90493      0.90983767     57256.442    
   5300000   517.80423      6998.8656      391.85961      2589.9192      3595.3892      3934.3928     -2304.3827      103.11679      0.90459692     57588.155    
   5320000   521.06265      7130.0254      350.53968      2593.3727      3653.7049      4010.0853     -2272.453       105.47295      0.92124541     56547.438    
[...]
  24500000   195.30164      1738.4971     -375.97239      2564.5126      1772.8547      2058.4219     -2960.7214      38.984107      1.0424172      49974.295    
  24520000   199.08895      1605.2768     -364.1192       2548.1057      1754.6704      1986.7644     -3000.9128      40.197304      1.0480658      49704.957    
  24540000   195.00038      1632.9237     -360.38134      2556.002       1779.8763      1974.2179     -2998.5254      41.046764      1.0378929      50192.142    
  24560000   202.08583      1709.2014     -319.31111      2562.5285      1776.336       2005.4427     -2997.3978      41.124244      1.0375672      50207.899    
  24580000   199.44617      1695.5493     -395.20637      2576.0985      1788.3001      2044.2012     -2996.899       38.258569      1.0421248      49988.318    
  24600000   198.31994      1646.5099     -369.58669      2555.747       1716.1667      2006.0238     -2940.9753      38.703924      1.0447378      49863.294    
  24620000   202.66178      1596.9926     -392.79814      2551.9838      1779.7405      2008.5335     -3032.6602      42.062166      1.0368598      50242.151    
  24640000   204.23427      1655.1767     -371.07978      2569.6219      1786.3515      1992.5275     -3004.6698      42.072187      1.0446255      49868.653    
  24660000   201.01789      1650.9952     -321.73697      2548.7698      1759.7808      1990.5692     -3003.8987      37.115399      1.0396718      50106.26     
  24680000   203.04749      1624.0838     -359.5724       2546.9327      1776.3262      2001.9332     -3019.8164      37.933077      1.0462433      49791.54     
  24700000   204.01138      1631.2205     -376.39259      2543.9721      1796.4917      2038.0608     -3051.0653      39.997642      1.046505       49779.089    
  24720000   199.98865      1551.7001     -376.10308      2560.8546      1755.5285      1938.4355     -3012.1841      44.769369      1.0403155      50075.261    
  24740000   199.4524       1682.0173     -358.45803      2554.2022      1775.5145      2040.4793     -3014.3066      44.45361       1.0372337      50224.043    
  24760000   202.87725      1737.1495     -359.93279      2561.0861      1803.2657      2023.3956     -2973.762       42.812333      1.0444154      49878.683    
  24780000   201.00255      1616.8894     -359.72834      2544.1742      1714.2153      2007.6332     -2972.8297      43.181405      1.0443616      49881.255    
  24800000   201.50536      1646.9616     -382.28277      2572.9592      1718.8504      2038.5178     -2981.1402      39.74505       1.0454477      49829.435    
  24820000   201.44635      1672.1131     -347.59258      2545.5044      1777.7055      2056.7219     -3040.3137      39.710039      1.0393772      50120.465    
  24840000   197.10175      1668.8387     -377.10326      2552.169       1753.2448      2055.149      -2994.9429      40.073306      1.0489526      49662.939    
  24860000   201.52879      1692.3157     -340.36465      2562.145       1815.656       2027.8438     -3052.4041      39.101592      1.0400056      50090.178    
  24880000   199.38151      1649.931      -391.51748      2553.847       1740.2554      2070.5435     -3005.7948      41.984911      1.0364496      50262.037    
  24900000   200.23359      1623.3589     -394.50997      2550.8915      1806.6148      2008.0739     -3027.8478      39.274291      1.0391383      50131.985    
  24920000   197.66778      1651.2136     -360.34881      2563.3345      1757.3353      2042.937      -3030.1516      37.636686      1.0403029      50075.867    
  24940000   196.78387      1645.0414     -341.05644      2544.9262      1790.2403      2006.2555     -3037.3918      41.512389      1.0360348      50282.162    
  24960000   200.70014      1630.5646     -322.95427      2541.9491      1735.9699      2023.6206     -3029.7438      40.998819      1.0380539      50184.355    
  24980000   198.74322      1654.0447     -371.4812       2566.4848      1765.5472      2027.7719     -3019.0686      43.93067       1.0424597      49972.259    
  25000000   204.05577      1598.4996     -399.25282      2548.5958      1749.9283      1987.8463     -2969.9189      40.633976      1.0450407      49848.841    
  25020000   201.86711      1656.3389     -355.12085      2567.9009      1743.3142      1963.3701     -2943.2963      39.750669      1.041486       50018.981    
  25040000   201.36567      1714.8647     -356.75047      2557.1481      1764.5487      2039.623      -2974.5014      44.227133      1.047273       49742.586    
  25060000   203.35082      1659.5448     -344.76454      2565.3545      1736.019       1977.1998     -2954.7846      40.008164      1.0444644      49876.345    
  25080000   200.99302      1639.7306     -373.08011      2563.9957      1738.1411      2029.5697     -2998.8268      39.428664      1.0437467      49910.642    
  25100000   197.48709      1654.7915     -335.61234      2547.7723      1717.7809      2018.553      -2973.8847      39.822329      1.0471659      49747.673    
  25120000   198.53689      1622.856      -374.19666      2553.0079      1714.9784      2012.2003     -2968.9119      44.898175      1.0494535      49639.235    
  25140000   198.82235      1628.261      -355.7871       2562.5268      1738.9665      2008.7744     -3009.2509      42.683832      1.043784       49908.859    
  25160000   201.19035      1587.5097     -357.84504      2552.8719      1737.607       1980.5639     -3007.1666      41.043481      1.042277       49981.02     
  25180000   197.71245      1648.4932     -357.75591      2567.049       1735.6968      1983.1275     -2959.4553      39.460221      1.0403372      50074.214    
  25200000   201.70241      1622.5576     -382.67423      2558.0746      1715.1998      2039.6601     -2986.8545      38.725373      1.0434688      49923.933    
  25200091   200.29666      1581.568      -370.45524      2556.8772      1683.8038      2036.1911     -3001.3479      36.297733      1.0451966      49841.404    
Loop time of 3861.47 on 24 procs for 1200000 steps with 5032 atoms

Performance: 6.712 ns/day, 3.575 hours/ns, 310.762 timesteps/s, 1.564 Matom-step/s
99.5% CPU use with 24 MPI tasks x no OpenMP threads

MPI task timing breakdown:
Section |  min time  |  avg time  |  max time  |%varavg| %total
---------------------------------------------------------------
Pair    | 2059.1     | 2294.9     | 2506.1     | 260.9 | 59.43
Bond    | 552.01     | 625.58     | 708.58     | 151.3 | 16.20
Kspace  | 497.22     | 740.8      | 1019.6     | 510.4 | 19.18
Neigh   | 22.019     | 22.04      | 22.058     |   0.2 |  0.57
Comm    | 129.73     | 131.73     | 134.97     |  12.4 |  3.41
Output  | 0.0034908  | 0.004017   | 0.015703   |   3.8 |  0.00
Modify  | 31.525     | 33.861     | 35.518     |  17.0 |  0.88
Other   |            | 12.58      |            |       |  0.33

Nlocal:        209.667 ave         225 max         199 min
Histogram: 5 3 1 3 2 4 2 1 1 2
Nghost:        4950.42 ave        4975 max        4924 min
Histogram: 3 1 2 0 6 3 2 2 3 2
Neighs:        76550.7 ave       86318 max       67662 min
Histogram: 5 0 3 0 2 5 2 4 2 1

Total # of neighbors = 1837216
Ave neighs/atom = 365.10652
Ave special neighs/atom = 5.8028617
Neighbor list builds = 7451
Dangerous builds = 0
unfix           fNPT
unfix           fMOM
next            a
jump            SELF loop
variable        a loop 26
variable        b equal 600-20*($a-1)
variable        b equal 600-20*(22-1)
fix             fMOM all momentum 100 linear 1 1 1 angular
fix             fNPT all npt temp $b $b $(100.0*dt) iso 1 1 $(100.0*dt)
fix             fNPT all npt temp 180 $b $(100.0*dt) iso 1 1 $(100.0*dt)
fix             fNPT all npt temp 180 180 $(100.0*dt) iso 1 1 $(100.0*dt)
fix             fNPT all npt temp 180 180 25 iso 1 1 $(100.0*dt)
fix             fNPT all npt temp 180 180 25 iso 1 1 25
run             1200000
PPPM initialization ...
  using 12-bit tables for long-range coulomb (../kspace.cpp:342)
  G vector (1/distance) = 0.1191781
  grid = 4 4 4
  stencil order = 5
  estimated absolute RMS force accuracy = 0.2767364
  estimated relative force accuracy = 0.00083338345
  using double precision KISS FFT
  3d grid and FFT values/proc = 294 4
Generated 21 of 21 mixed pair_coeff terms from sixthpower/sixthpower mixing rule
WARNING: Inconsistent image flags (../domain.cpp:815)
Per MPI rank memory allocation (min/avg/max) = 22.22 | 22.3 | 22.62 Mbytes
   Step          Temp          PotEng         E_vdwl         E_coul         E_bond        E_angle        E_dihed        E_impro        Density         Volume    
  25200091   200.29666      1581.752      -370.45524      2559.5639      1683.8038      2036.1911     -3001.3479      36.297733      1.0451966      49841.404    
  25220000   180.06357      1378.7227     -398.60085      2553.7139      1631.6403      1942.5037     -3023.5769      34.80029       1.0501122      49608.095    
  25240000   182.73235      1427.1109     -374.33208      2545.3069      1694.5421      1939.1867     -3053.9927      38.63724       1.0431981      49936.89     
  25260000   178.68647      1396.1255     -385.86576      2559.487       1675.1837      1906.8822     -3037.4985      40.015776      1.0404359      50069.463    
  25280000   183.27826      1343.5286     -384.2979       2545.1855      1666.5007      1878.3538     -3033.9624      33.933506      1.0428065      49955.639    
  25300000   183.9658       1372.2954     -380.9942       2555.0873      1655.6375      1896.2158     -3025.5083      33.891734      1.0469975      49755.677    
  25320000   184.12291      1319.6028     -386.83807      2551.2083      1652.9172      1873.0577     -3045.0329      36.306934      1.0423895      49975.625    
  25340000   177.72787      1344.1181     -371.49519      2541.555       1666.4006      1888.6794     -3054.3517      35.541536      1.0462101      49793.122    
  25360000   181.30242      1304.9822     -435.46199      2539.9476      1670.3608      1860.2798     -3004.1452      36.021938      1.0501351      49607.013    
  25380000   179.07251      1339.6338     -404.19558      2541.9312      1648.3585      1903.5541     -3027.6639      39.725305      1.0465375      49777.546    
  25400000   179.58327      1341.0225     -430.30256      2551.0815      1664.9357      1888.7558     -3010.3853      39.087568      1.046279       49789.841    
  25420000   180.59606      1393.6355     -416.14932      2568.06        1689.5388      1900.6798     -3022.2752      35.977867      1.0576361      49255.191    
  25440000   182.33874      1383.6775     -441.50788      2538.351       1662.0316      1963.6777     -3015.2413      38.153139      1.0574438      49264.148    
  25460000   179.80033      1358.4367     -433.22099      2546.1974      1720.7797      1906.2098     -3054.4932      35.228443      1.0574963      49261.701    
  25480000   177.4345       1336.4226     -416.98714      2552.2046      1669.114       1897.2436     -3037.638       34.761039      1.0507883      49576.178    
  25500000   182.85369      1356.6036     -406.04172      2558.0392      1665.2852      1923.6714     -3060.5313      38.039901      1.0490018      49660.609    
  25520000   179.56695      1357.9097     -420.63438      2553.197       1682.0662      1895.9055     -3031.1247      40.592512      1.0478555      49714.935    
  25540000   178.39139      1351.2506     -363.43782      2559.7921      1653.8088      1905.0154     -3075.2688      33.48744       1.04687        49761.735    
  25560000   179.43029      1379.6579     -406.42172      2552.23        1604.0369      1925.3753     -2968.8395      35.602035      1.0522574      49506.964    
  25580000   181.78243      1355.6728     -406.10414      2540.1326      1736.9066      1911.924      -3101.7988      36.83289       1.0561894      49322.658    
  25600000   175.58811      1342.2748     -398.67594      2549.7948      1720.1516      1880.4317     -3084.8221      37.419547      1.0482262      49697.355    
  25620000   177.89606      1320.6572     -428.53353      2552.5654      1658.5947      1876.0461     -3014.6753      38.860902      1.0456784      49818.44     
  25640000   179.93877      1277.3499     -439.63636      2528.9264      1648.9078      1929.8267     -3066.1277      37.478851      1.0533014      49457.892    
  25660000   179.72886      1369.6409     -438.27806      2548.5572      1692.0599      1942.7982     -3050.3668      36.84897       1.0490443      49658.594    
  25680000   177.90339      1353.4966     -400.3526       2549.1399      1677.0563      1904.2422     -3050.5155      35.98774       1.0469057      49760.04     
  25700000   177.48668      1276.5036     -388.42915      2563.8701      1660.3535      1835.9497     -3071.7724      38.255499      1.0484582      49686.355    
  25720000   177.57404      1401.2303     -406.85953      2563.7823      1766.6809      1908.4682     -3104.2625      35.769914      1.0486571      49676.933    
  25740000   180.68262      1334.8378     -438.54213      2534.1063      1656.5634      1932.9598     -3022.0134      33.58741       1.0503155      49598.495    
  25760000   180.50677      1350.796      -367.65718      2557.747       1655.7511      1886.3561     -3051.2961      31.855725      1.0431357      49939.875    
  25780000   179.80652      1371.4579     -380.8041       2574.1263      1660.6606      1881.773      -3043.9021      41.673447      1.0476513      49724.626    
  25800000   178.87937      1377.066      -403.17043      2571.2108      1675.7714      1904.5274     -3044.5761      35.10356       1.0469197      49759.374    
  25820000   179.05464      1416.7204     -397.04998      2566.065       1674.6708      1917.2362     -3020.1529      37.979151      1.0430137      49945.717    
  25840000   180.94972      1372.6396     -385.78615      2563.7359      1709.2891      1906.476      -3095.3511      36.377187      1.0536928      49439.52     
  25860000   177.55159      1409.1239     -418.51758      2574.104       1656.836       1919.0125     -2998.4389      37.899911      1.0485352      49682.706    
  25880000   179.2292       1299.8263     -400.80066      2560.5656      1629.7734      1871.9494     -3035.7035      36.337676      1.0493873      49642.365    
  25900000   182.00349      1368.7462     -434.09456      2560.3662      1691.9449      1934.3572     -3060.2658      38.230857      1.0507258      49579.127    
  25920000   180.4331       1353.6524     -406.23644      2558.4583      1643.9482      1895.9641     -3011.8736      35.445796      1.0477188      49721.422    
  25940000   179.82756      1356.6851     -377.96185      2565.5618      1618.4662      1930.5407     -3052.044       34.069337      1.0385196      50161.853    
  25960000   176.25692      1344.3026     -401.8745       2543.9646      1617.7053      1946.3189     -3036.4662      36.706323      1.0513825      49548.158    
  25980000   180.63707      1384.4258     -391.61297      2564.3881      1642.5467      1902.4547     -3009.6546      38.305353      1.0483772      49690.195    
  26000000   180.26788      1372.8282     -397.54061      2560.431       1658.1472      1939.5978     -3060.7518      34.69907       1.0549657      49379.868    
  26020000   183.22341      1356.8342     -407.47005      2544.7579      1645.0708      1945.4206     -3046.2358      37.120717      1.044426       49878.181    
  26040000   175.60416      1317.2443     -420.71702      2553.3961      1647.191       1913.1714     -3045.148       31.399512      1.0453834      49832.5      
  26060000   177.30824      1320.8733     -437.82722      2559.7851      1641.273       1932.5603     -3049.6978      36.547974      1.044964       49852.499    
  26080000   180.23298      1275.491      -389.37372      2537.679       1612.4648      1891.9057     -3051.6928      36.771442      1.0504793      49590.759    
  26100000   179.99955      1390.6926     -418.72367      2538.4836      1708.9321      1945.4999     -3058.477       37.121506      1.0511083      49561.085    
  26120000   179.96658      1334.5341     -398.69686      2558.663       1660.811       1890.1221     -3053.6454      39.155408      1.048579       49680.63     
  26140000   179.31237      1346.8368     -389.69131      2533.5073      1654.7992      1937.8428     -3063.6527      36.324911      1.0506403      49583.161    
  26160000   182.11799      1344.5369     -422.17137      2548.8227      1681.9123      1902.1502     -3043.0055      38.683349      1.0501982      49604.036    
  26180000   179.6098       1461.4031     -415.00221      2561.0978      1688.6284      1940.6238     -2991.0051      39.206875      1.0486631      49676.646    
  26200000   182.78679      1287.4752     -385.87453      2557.8813      1661.6522      1871.2768     -3087.564       32.2978        1.0510759      49562.611    
  26220000   181.02921      1379.0786     -413.40878      2552.7544      1689.5086      1973.232      -3097.5646      36.774091      1.0509007      49570.874    
  26240000   178.427        1397.052      -361.76133      2549.5374      1641.751       1936.3415     -3042.9417      36.288919      1.0581801      49229.868    
  26260000   179.17288      1374.0927     -377.85186      2557.062       1644.6981      1957.8493     -3079.9599      34.569019      1.0533184      49457.095    
  26280000   181.17514      1329.2798     -425.63807      2560.616       1646.2753      1911.0079     -3036.0814      35.418615      1.0474092      49736.116    
  26300000   181.57315      1429.7621     -435.82927      2568.275       1720.7186      1958.285      -3054.885       35.306953      1.0510789      49562.472    
  26320000   177.88465      1391.645      -437.62767      2563.5301      1662.6442      1943.7703     -3019.174       40.465363      1.0506788      49581.344    
  26340000   181.49319      1345.3462     -395.90735      2566.1427      1623.204       1911.1384     -3032.5879      35.59804       1.052264       49506.65     
  26360000   179.82332      1331.6896     -425.70765      2565.7661      1682.9325      1923.6998     -3084.9938      32.01281       1.0438096      49907.634    
  26380000   178.31547      1352.6313     -420.62382      2569.2807      1659.9459      1930.3809     -3057.8717      33.528246      1.0518111      49527.968    
  26400000   183.08509      1354.9463     -451.65501      2569.7601      1685.8183      1900.4248     -3023.2717      35.866305      1.048503       49684.234    
  26400091   181.51375      1350.0779     -380.82502      2556.6995      1656.7626      1915.1699     -3075.2828      39.497881      1.0521682      49511.159    
Loop time of 3868.58 on 24 procs for 1200000 steps with 5032 atoms

Performance: 6.700 ns/day, 3.582 hours/ns, 310.191 timesteps/s, 1.561 Matom-step/s
99.5% CPU use with 24 MPI tasks x no OpenMP threads

MPI task timing breakdown:
Section |  min time  |  avg time  |  max time  |%varavg| %total
---------------------------------------------------------------
Pair    | 2075.6     | 2303.8     | 2544.4     | 274.2 | 59.55
Bond    | 555.62     | 624.71     | 709.61     | 145.9 | 16.15
Kspace  | 516.95     | 742.39     | 1009.9     | 520.5 | 19.19
Neigh   | 20.035     | 20.06      | 20.09      |   0.3 |  0.52
Comm    | 129.06     | 131.42     | 134.58     |  12.1 |  3.40
Output  | 0.0035873  | 0.0039875  | 0.012782   |   2.9 |  0.00
Modify  | 31.419     | 33.705     | 35.066     |  17.3 |  0.87
Other   |            | 12.46      |            |       |  0.32

Nlocal:        209.667 ave         224 max         200 min
Histogram: 2 3 5 3 5 2 0 1 2 1
Nghost:        4967.71 ave        4995 max        4932 min
Histogram: 2 2 0 0 7 2 1 3 4 3
Neighs:        76961.2 ave       86610 max       68176 min
Histogram: 2 2 3 2 3 3 5 2 0 2

Total # of neighbors = 1847069
Ave neighs/atom = 367.06459
Ave special neighs/atom = 5.8028617
Neighbor list builds = 6853
Dangerous builds = 0
