LAMMPS data file via write_data, version 22 Dec 2022, timestep = 300000

5032 atoms
7 atom types
5176 bonds
9 bond types
9424 angles
17 angle types
13200 dihedrals
20 dihedral types
5168 impropers
16 improper types

4.695013404664358 44.04196354533618 xlo xhi
4.695013404664358 44.04196354533618 ylo yhi
4.695013404664358 44.04196354533618 zlo zhi

Masses

1 12.01115
2 12.01115
3 1.00797
4 1.00797
5 15.9994
6 15.9994
7 15.9994

Pair Coeffs # lj/class2/coul/long

1 0.054 4.01
2 0.064 4.01
3 0.02 2.995
4 0.02 2.995
5 0.24 3.535
6 0.24 3.535
7 0.24 3.535

Bond Coeffs # class2

1 1.53 299.67 -501.77 679.81
2 1.501 321.902 -521.821 572.163
3 1.101 345 -691.89 844.6
4 1.42 400.395 -835.195 1313.01
5 1.42 400.395 -835.195 1313.01
6 1.42 400.395 -835.195 1313.01
7 1.417 470.836 -627.618 1327.63
8 1.0982 372.825 -803.453 894.317
9 0.96 493.848 0 0

Angle Coeffs # class2

1 112.67 39.516 -7.443 -9.5583
2 110.77 41.453 -10.604 5.129
3 111.27 54.5381 -8.3642 -13.0838
4 111.27 54.5381 -8.3642 -13.0838
5 111.27 54.5381 -8.3642 -13.0838
6 120.05 44.7148 -22.7352 0
7 104.5 35.7454 -10.0067 -6.2729
8 104.5 35.7454 -10.0067 -6.2729
9 109 58.5 0 0
10 111 44.3234 -9.4454 0
11 110.5 46 0 0
12 118.9 61.0226 -34.9931 0
13 117.94 35.1558 -12.4682 0
14 107.66 39.641 -12.921 -2.4318
15 108.728 58.5446 -10.8088 -12.4006
16 108.728 58.5446 -10.8088 -12.4006
17 108.728 58.5446 -10.8088 -12.4006

BondBond Coeffs

1 0 1.53 1.53
2 3.3872 1.53 1.101
3 11.4318 1.53 1.42
4 11.4318 1.53 1.42
5 11.4318 1.53 1.42
6 12.0676 1.501 1.417
7 -7.1131 1.42 1.42
8 -7.1131 1.42 1.42
9 0 1.42 0.96
10 2.9168 1.501 1.101
11 0 1.501 1.42
12 68.2856 1.417 1.417
13 1.0795 1.417 1.0982
14 5.3316 1.101 1.101
15 23.1979 1.101 1.42
16 23.1979 1.101 1.42
17 23.1979 1.101 1.42

BondAngle Coeffs

1 8.016 8.016 1.53 1.53
2 20.754 11.421 1.53 1.101
3 2.6868 20.4033 1.53 1.42
4 2.6868 20.4033 1.53 1.42
5 2.6868 20.4033 1.53 1.42
6 47.0579 31.0771 1.501 1.417
7 -2.8112 -2.8112 1.42 1.42
8 -2.8112 -2.8112 1.42 1.42
9 0 0 1.42 0.96
10 11.7717 26.4608 1.501 1.101
11 0 0 1.501 1.42
12 28.8708 28.8708 1.417 1.417
13 24.2183 20.0033 1.417 1.0982
14 18.103 18.103 1.101 1.101
15 4.6189 55.327 1.101 1.42
16 4.6189 55.327 1.101 1.42
17 4.6189 55.327 1.101 1.42

Dihedral Coeffs # class2

1 0 0 0.0514 0 -0.143 0
2 0 0 0.0316 0 -0.1681 0
3 0.7137 0 0.266 0 -0.2545 0
4 0.7137 0 0.266 0 -0.2545 0
5 0.7137 0 0.266 0 -0.2545 0
6 -0.5203 0 -0.3028 0 -0.345 0
7 -0.5203 0 -0.3028 0 -0.345 0
8 0 0 0 0 0.13 180
9 0 0 4.4072 0 0 0
10 0 0 1.559 0 0 0
11 0.5302 0 0 0 -0.3966 0
12 0 0 0 0 0.13 180
13 0.5302 0 0 0 -0.3966 0
14 -0.2801 0 -0.0678 0 -0.0122 0
15 0 180 0 0 0 0
16 8.3667 0 1.1932 0 0 0
17 0 0 3.9661 0 0 0
18 0 0 0 0 0.13 180
19 -0.1432 0 0.0617 0 -0.1083 0
20 0 0 1.8769 0 0 0

AngleAngleTorsion Coeffs

1 -22.045 112.67 112.67
2 -16.164 112.67 110.77
3 -29.042 112.67 111.27
4 -29.042 112.67 111.27
5 -29.042 112.67 111.27
6 -19.0059 111.27 104.5
7 -19.0059 111.27 104.5
8 0 111.27 109
9 -14.4097 120.05 118.9
10 4.4444 120.05 117.94
11 -16.4438 104.5 108.728
12 0 104.5 110.5
13 -16.4438 104.5 108.728
14 -5.8888 120.05 111
15 0 120.05 110.5
16 0 118.9 118.9
17 -4.8141 118.9 117.94
18 0 109 108.728
19 -12.564 110.77 110.77
20 0.3598 117.94 117.94

EndBondTorsion Coeffs

1 -0.0732 0 0 -0.0732 0 0 1.53 1.53
2 0.2486 0.2422 -0.0925 0.0814 0.0591 0.2219 1.53 1.101
3 -0.319 0.4411 -0.7174 1.1538 0.8409 -0.9138 1.53 1.42
4 -0.319 0.4411 -0.7174 1.1538 0.8409 -0.9138 1.53 1.42
5 -0.319 0.4411 -0.7174 1.1538 0.8409 -0.9138 1.53 1.42
6 -0.2456 1.0517 -0.7795 0.4741 1.2635 0.5576 1.53 1.42
7 -0.2456 1.0517 -0.7795 0.4741 1.2635 0.5576 1.53 1.42
8 0 0 0 0 0 0 1.53 0.96
9 0 0.2421 0 0 -0.6918 0 1.501 1.417
10 0 -1.797 0 0 -0.4879 0 1.501 1.0982
11 -0.162 0.1564 -1.1408 -0.6054 1.3339 0.9648 1.42 1.101
12 0 0 0 0 0 0 1.42 1.501
13 -0.162 0.1564 -1.1408 -0.6054 1.3339 0.9648 1.42 1.101
14 1.3997 0.7756 0 -0.5835 1.122 0.3978 1.417 1.101
15 0 0 0 0 0 0 1.417 1.42
16 -0.1185 6.3204 0 -0.1185 6.3204 0 1.417 1.417
17 0 -0.4669 0 0 -6.8958 0 1.417 1.0982
18 0 0 0 0 0 0 0.96 1.101
19 0.213 0.312 0.0777 0.213 0.312 0.0777 1.101 1.101
20 0 -0.689 0 0 -0.689 0 1.0982 1.0982

MiddleBondTorsion Coeffs

1 -17.787 -7.1877 0 1.53
2 -14.879 -3.6581 -0.3138 1.53
3 -21.8842 -7.6764 -0.6868 1.53
4 -21.8842 -7.6764 -0.6868 1.53
5 -21.8842 -7.6764 -0.6868 1.53
6 -5.9288 -2.7007 -0.3175 1.42
7 -5.9288 -2.7007 -0.3175 1.42
8 0 0 0 1.42
9 0 9.1792 0 1.417
10 0 3.9421 0 1.417
11 -6.8007 -4.6546 -1.4101 1.42
12 0 0 0 1.42
13 -6.8007 -4.6546 -1.4101 1.42
14 -5.5679 1.4083 0.301 1.501
15 0 0 0 1.501
16 27.5989 -2.312 0 1.417
17 0 -1.1521 0 1.417
18 0 0 0 1.42
19 -14.261 -0.5322 -0.4864 1.53
20 0 4.8228 0 1.417

BondBond13 Coeffs

1 0 1.53 1.53
2 0 1.53 1.101
3 0 1.53 1.42
4 0 1.53 1.42
5 0 1.53 1.42
6 0 1.53 1.42
7 0 1.53 1.42
8 0 1.53 0.96
9 2.5085 1.501 1.417
10 0.8743 1.501 1.0982
11 0 1.42 1.101
12 0 1.42 1.501
13 0 1.42 1.101
14 -3.4826 1.417 1.101
15 0 1.417 1.42
16 53 1.417 1.417
17 -6.2741 1.417 1.0982
18 0 0.96 1.101
19 0 1.101 1.101
20 -1.7077 1.0982 1.0982

AngleTorsion Coeffs

1 0.3886 -0.3139 0.1389 0.3886 -0.3139 0.1389 112.67 112.67
2 -0.2454 0 -0.1136 0.3113 0.4516 -0.1988 112.67 110.77
3 0.5623 -0.3041 -0.4015 0.9672 -0.7566 -1.2331 112.67 111.27
4 0.5623 -0.3041 -0.4015 0.9672 -0.7566 -1.2331 112.67 111.27
5 0.5623 -0.3041 -0.4015 0.9672 -0.7566 -1.2331 112.67 111.27
6 -2.7466 1.4877 -0.8955 0.5676 0.945 0.0703 111.27 104.5
7 -2.7466 1.4877 -0.8955 0.5676 0.945 0.0703 111.27 104.5
8 0 0 0 0 0 0 111.27 109
9 0 -4.4683 0 0 3.8987 0 120.05 118.9
10 0 -0.1242 0 0 3.4601 0 120.05 117.94
11 -0.7777 0.434 -0.6653 -1.8234 1.6393 0.5144 104.5 108.728
12 0 0 0 0 0 0 104.5 110.5
13 -0.7777 0.434 -0.6653 -1.8234 1.6393 0.5144 104.5 108.728
14 4.6266 0.1632 0.0461 0.2251 0.6548 0.1237 120.05 111
15 0 0 0 0 0 0 120.05 110.5
16 1.9767 1.0239 0 1.9767 1.0239 0 118.9 118.9
17 0 2.7147 0 0 2.5014 0 118.9 117.94
18 0 0 0 0 0 0 109 108.728
19 -0.8085 0.5569 -0.2466 -0.8085 0.5569 -0.2466 110.77 110.77
20 0 2.4501 0 0 2.4501 0 117.94 117.94

Improper Coeffs # class2

1 0 0
2 0 0
3 0 0
4 0 0
5 0 0
6 0 0
7 0 0
8 0 0
9 0 0
10 0 0
11 0 0
12 0 0
13 0 0
14 0 0
15 7.8153 0
16 4.8912 0

AngleAngle Coeffs

1 -0.1729 -0.1729 -0.1729 112.67 112.67 112.67
2 -1.3199 -1.3199 0.1184 112.67 110.77 110.77
3 0.2738 -0.4825 0.2738 110.77 110.77 107.66
4 3.9177 2.5926 0.1689 110.77 111.27 108.728
5 3.9177 2.5926 0.1689 110.77 111.27 108.728
6 0.1689 2.5926 3.9177 111.27 110.77 108.728
7 0.1689 2.5926 3.9177 111.27 110.77 108.728
8 0.1689 2.5926 3.9177 111.27 110.77 108.728
9 0 3.0118 0 111 111 107.66
10 0 0 0 111 110.5 108.728
11 -0.3157 -0.3157 -0.3157 107.66 107.66 107.66
12 2.4259 2.4259 2.1283 107.66 108.728 108.728
13 2.4259 2.4259 2.1283 107.66 108.728 108.728
14 2.4259 2.4259 2.1283 107.66 108.728 108.728
15 0 0 0 120.05 120.05 118.9
16 0 0 0 118.9 117.94 117.94

Atoms # full

2890 1 6 -0.266 18.364576033618675 10.9789907023054 5.016424661067188 -2 4 4
3984 8 2 -0.1268 5.205802241388245 6.697379366609349 6.1413304805272775 -1 4 5
156 5 2 -0.1268 6.663444818786003 8.977677573504828 11.808330841461524 -1 4 4
159 5 4 0.1268 8.383182898149387 7.86682726933992 12.167204460803992 -1 4 4
3768 1 4 0.053 11.162081719537433 5.504628579844859 14.048270771528951 -1 4 4
2076 8 2 -0.1268 24.156482988721844 7.003414475355154 7.920625125187884 -2 4 4
3988 8 2 -0.1268 7.392513515331574 6.828859024874406 7.062181756844982 -1 4 5
3990 8 2 -0.1268 6.817210674606434 7.428210383905027 8.216053240908721 -1 4 5
3991 8 4 0.1268 7.520017257275747 7.97915835302078 8.881926826000143 -1 4 5
3992 8 2 -0.1268 5.491094550138274 7.517256914391455 8.367296498059472 -1 4 5
3993 8 4 0.1268 5.078580954255514 8.195831972611973 9.025238492238646 -1 4 5
3989 8 4 0.1268 8.534462954955657 6.893799998133774 7.053059314201562 -1 4 5
653 7 2 -0.1268 22.795157336038248 16.829589317141732 10.294100005039997 -2 3 4
3769 1 4 0.053 9.571713993904122 5.314020821545531 13.121995444019067 -1 4 4
158 5 2 -0.1268 8.038392833868953 8.805904222494885 11.738350974636283 -1 4 4
155 5 2 0 5.934380096051011 10.016128632896478 11.314136032521475 -1 4 4
160 5 2 -0.1268 8.782767577746084 9.865163871609388 11.273344532054697 -1 4 4
161 5 4 0.1268 9.84436121076864 9.899111250808705 11.269978733354339 -1 4 4
164 5 2 -0.1268 6.704755938033381 10.993603088023196 10.633024477506012 -1 4 4
5026 5 4 0.1268 10.55460857176146 8.773884284836441 9.229036950717408 -1 4 4
5025 5 2 -0.1268 11.10036651177571 9.092084951153614 8.306138932342094 -1 4 4
162 5 2 -0.1268 8.14170556745213 10.9385558495498 10.692498935797483 -1 4 4
5009 5 4 0.053 6.013230786587086 11.522252110237764 7.138393436236943 -1 4 4
658 7 4 0.1268 19.517859923843112 16.187024714034237 10.16719074910297 -2 3 4
5032 5 4 0.1268 12.94094337951209 10.996939771600527 5.424794709491555 -1 4 4
3765 1 4 0.053 10.61304299490494 4.789984348356207 11.462453506362394 -1 4 4
5024 5 4 0.1268 9.335927755844288 9.906224395282454 7.527934137619357 -1 4 4
5023 5 2 -0.1268 10.438528730150516 9.835048527152551 7.349569616391815 -1 4 4
3766 1 4 0.053 12.330091060429353 5.119312441757603 12.07789504847171 -1 4 4
3767 1 1 -0.106 10.586830636175337 4.838293586292064 13.400960846219395 -1 4 4
223 1 4 0.1268 5.305153390273331 5.971152544308763 10.26416297978908 -1 4 4
3986 8 2 -0.1268 6.549892051438193 6.53676041303086 5.9635295769479395 -1 4 5
157 5 4 0.1268 6.0161421322676825 8.075324533432674 12.194552591235412 -1 4 4
5028 5 4 0.1268 12.998491516351093 8.42856916927539 8.952549082295782 -1 4 4
5027 5 2 -0.1268 12.482567154463592 9.070118811517041 8.226243896720678 -1 4 4
5030 5 4 0.1268 14.245726028016435 9.611983081058527 7.206733318514088 -1 4 4
3684 5 4 0.053 5.228790338831992 15.742512025473317 13.888066350743921 -2 3 4
2188 1 4 0.053 15.034121186568816 5.558839174369815 12.532888184657347 -1 4 4
2187 1 1 0.027 15.706402146687411 5.355159638953198 13.458061099834365 -1 4 4
540 1 6 -0.266 17.05308487328253 7.986989037410777 13.215357075538687 -2 4 4
2193 1 4 0.053 15.010222777749195 7.783080548518251 12.845477750905577 -1 4 4
2191 1 1 0.027 15.62538166808113 7.798588234453728 13.62740247916889 -1 4 4
5029 5 2 -0.1268 13.134496318306049 9.661705522613465 7.192209657103431 -1 4 4
537 1 1 0.027 17.297462833189364 9.191196411750202 12.521495181294103 -2 4 4
5031 5 2 -0.1268 12.441056316159 10.428840923985646 6.287873643355523 -1 4 4
534 1 4 0.053 15.561816494057586 7.715219381823404 10.654446042639162 -2 4 4
536 1 1 0 16.597125500842075 9.612247377057876 11.234030877166735 -2 4 4
545 1 4 0.053 14.413291889516245 9.629292278625538 12.005839763770643 -2 4 4
539 1 4 0.053 17.114685724963756 10.093513794385203 13.15203557191512 -2 4 4
544 1 1 0.027 15.074763486402718 10.300314851514855 11.349170896516807 -2 4 4
546 1 4 0.053 14.605776534398268 10.226223280626538 10.386474098560669 -2 4 4
547 1 6 -0.266 15.066589220581221 11.728119903636275 11.733349351778639 -2 4 4
533 1 1 -0.106 16.292614249436756 8.389063650106415 10.218170758644789 -2 4 4
535 1 4 0.053 15.677827681369312 8.835869122038616 9.464363537595823 -2 4 4
541 1 1 0.027 17.429639383287988 10.642259086486998 10.474099189273872 -2 4 4
2189 1 4 0.053 16.741959180019165 5.189137072102296 13.18985376830272 -1 4 4
2888 1 4 0.053 19.560184118888948 12.520488520440006 5.806118064227162 -2 4 4
2883 1 6 -0.266 16.86925678462501 11.014030767149237 9.212166867898585 -2 4 4
4084 6 4 0.1268 18.498477124290687 12.312714012943852 14.298878853069349 -2 4 4
2887 1 1 0.027 19.105107854827793 11.585593754306412 6.1123945971406615 -2 4 4
2186 1 1 0 15.500859945933449 6.520794150247787 14.513286428073677 -1 4 4
2904 1 4 0.1268 18.629312464616497 8.42047547001766 5.393138501168209 -2 4 4
5022 5 2 0 11.017568089170421 10.495819395091182 6.268685792554512 -1 4 4
549 1 4 0.053 13.541677929395366 11.20239502372161 13.068596076142208 -2 4 4
2877 1 4 0.053 19.471825136256363 13.543256796601629 8.435758404162392 -2 4 4
3590 5 2 -0.1268 23.4604510605975 13.529682683894299 14.183679761586648 -2 4 4
3691 5 2 -0.1268 9.423549438824153 17.680354280575692 12.660897503880694 -2 3 4
656 7 4 0.1268 21.693319817004397 15.490857979089723 11.39001952001556 -2 3 4
2078 8 2 -0.1268 23.96885912620212 5.657862797044917 8.127891766876525 -2 4 4
2075 8 4 0.1268 23.155492112825616 8.918896207431942 7.398308149044869 -2 4 4
2881 1 4 0.053 16.837434409698652 10.013436849528752 7.4587845939663335 -2 4 4
530 1 4 0.053 17.11676438752709 6.471802912726905 10.254385858350123 -2 4 4
529 1 1 -0.159 17.34542063482587 7.471237084623081 9.774592821298487 -2 4 4
531 1 4 0.053 17.072795806911053 7.158280640407304 8.649076727372249 -2 4 4
543 1 4 0.053 17.35137791180015 11.52749604358211 11.083245937976052 -2 4 4
2073 8 4 0.1268 20.840635706319752 7.9180886159042565 7.887049546544195 -2 4 4
4307 1 4 0.053 18.2676242373114 17.245785418413696 7.606050177184043 -2 4 4
3686 5 2 0 7.2472470261976145 16.63094890532966 14.08207250868618 -2 3 4
538 1 4 0.053 18.478119151741012 9.179561232608052 12.440973889146678 -2 4 4
3594 5 2 -0.1268 22.22586850164681 11.681349124506584 13.414355009799493 -2 4 4
2074 8 2 -0.1268 23.03654052591211 7.791887193097801 7.698791848416226 -2 4 4
2069 8 2 0 22.65675448856123 5.102587599375961 8.263255113646132 -2 4 4
2071 8 4 0.1268 20.53391482692556 5.370806043774127 8.092537547790428 -2 4 4
532 1 4 0.053 18.40358635785651 7.793571160597324 10.009184876664097 -2 4 4
2072 8 2 -0.1268 21.716074637432925 7.294597272755604 7.9409433315987314 -2 4 4
2070 8 2 -0.1268 21.525433365891686 5.923321587000404 8.19405719414766 -2 4 4
3596 5 2 -0.1268 23.456352125214 11.09055534774383 13.083774452914202 -2 4 4
542 1 4 0.053 18.555221875587407 10.525335084175651 10.359796874109069 -2 4 4
2882 1 4 0.053 18.349458552556854 9.833547577454027 8.170562768088056 -2 4 4
2874 1 4 0.053 20.46702605755522 10.59921950370058 8.99554117748032 -2 4 4
2880 1 1 0.027 17.59367486523946 10.567678134133288 7.992973104505239 -2 4 4
3597 5 4 0.1268 23.53152969203087 9.944002341089313 12.864546719904551 -2 4 4
5012 5 4 0.053 4.925124042702239 9.503889565298262 6.083764280548025 -1 4 4
659 7 2 -0.1268 20.498152225696057 17.72220268706065 9.16225131056055 -2 3 4
2878 1 4 0.053 18.771094249705413 12.513606548009935 9.584412169918501 -2 4 4
2875 1 4 0.053 21.15313505748531 12.11294219885351 9.566836047702687 -2 4 4
4981 5 6 -0.266 6.565454587222518 14.276136208766422 5.2343785719513924 -1 4 4
5019 5 1 0.027 10.134490427865966 11.171754280799208 5.311170666543107 -1 4 4
4972 5 1 0 8.967270175156173 14.84683440459481 5.034728572532088 -1 4 4
5014 5 4 0.053 6.6791586796597056 9.593327762414173 6.0934729339749225 -1 4 4
5010 5 4 0.053 6.929089652665071 11.948517747308841 5.677445695620935 -1 4 4
4983 5 4 0.053 5.678545240209125 14.165612062409737 7.07558290989431 -1 4 4
3693 5 2 -0.1268 8.459925326811733 16.961411126109887 12.002828644145856 -2 3 4
4985 5 1 0 4.894639196215953 12.56153542513311 5.698802303633116 -1 4 4
4982 5 1 0.027 5.419454126478135 14.037220251531492 6.013281653909447 -1 4 4
4980 5 4 0.053 7.9226555440135895 14.320632571918603 6.903189118638267 -1 4 4
5020 5 4 0.053 9.141116412782834 10.54531602619792 5.201976045189085 -1 4 4
165 5 4 0.1268 6.352128436758729 11.798997620927679 10.032797466635422 -1 4 4
163 5 4 0.1268 8.60395403320285 11.843596787449528 10.239436720188152 -1 4 4
4979 5 4 0.053 7.419890063043499 15.836050607412266 6.273226664743563 -1 4 4
4978 5 1 0.027 7.709784822473733 14.893738368522106 5.918268251068738 -1 4 4
3695 5 2 -0.1268 7.486777044312384 16.251306145778635 12.77297302279531 -2 3 4
3696 5 4 0.1268 6.918246424789082 15.379857007535612 12.314952795820233 -2 3 4
3694 5 4 0.1268 8.709182073809492 16.769796045780733 10.977656930123638 -2 3 4
5011 5 1 -0.159 5.788638569422552 10.109538700259094 5.6208687349335476 -1 4 4
2879 1 1 0 18.274864067153942 11.987724297320327 7.3774304507004285 -2 4 4
4973 5 1 0.027 10.126368324979769 15.576686554316163 5.873492960188106 -1 4 4
5018 5 6 -0.266 9.850565000530791 12.514725225711816 5.811311116104732 -1 4 4
4974 5 4 0.053 10.482969415473805 14.915013750351829 6.699644061478477 -1 4 4
557 1 4 0.1268 9.95688958229087 14.32843987324295 9.341974211133252 -2 4 4
559 1 4 0.1268 10.049703230193412 14.731061489026006 12.002380648124525 -2 4 4
4127 5 4 0.053 13.24120860966567 17.7352002273741 13.585664669704387 -2 4 4
4975 5 4 0.053 9.635858540985446 16.388908949126915 6.363459925231313 -1 4 4
657 7 2 -0.1268 20.49073923419096 16.65588719382297 10.042310555698046 -2 3 4
3595 5 4 0.1268 21.307357590867202 11.072597356401822 13.383015364155371 -2 4 4
3987 8 4 0.1268 7.046029804051521 6.136494093560286 5.0482854616132755 -1 4 5
654 7 4 0.1268 23.619183157415996 16.683052242548378 11.032140837412065 -2 3 4
550 1 4 0.053 14.155303106119849 12.86674805427725 13.127774182024254 -2 4 4
4297 1 4 0.053 17.38952109266043 15.705904140993965 9.087178293419743 -2 4 4
4083 6 2 -0.1268 17.56035600249207 12.981461907836017 14.434450118534297 -2 4 4
4976 5 7 -0.5571 11.250119229093425 16.054544311090623 5.122358146919203 -1 4 4
548 1 1 0.027 13.876421096908913 12.08472647284756 12.472852270218471 -2 4 4
2901 1 2 -0.1268 20.307224293207902 7.1563287587745155 5.237480824473718 -2 4 4
4303 1 1 0.027 14.783873597725911 17.21579886841184 7.449662354598592 -2 4 4
4304 1 4 0.053 14.522178502825291 17.49803128450765 6.412614740655692 -2 4 4
2884 1 1 0.027 17.130952008054088 13.040518120376866 7.084331676577684 -2 4 4
4294 1 4 0.053 15.139036202563416 14.3418347497468 9.566423220477642 -2 4 4
4298 1 1 0 16.176789878777775 16.537251057351902 7.665174221566985 -2 4 4
4305 1 4 0.053 14.092239960683566 16.434072124082096 7.657437597339318 -2 4 4
2886 1 4 0.053 16.54882474960107 12.957489704355563 8.078258970314582 -2 4 4
4088 6 4 0.1268 16.03753572313331 15.807026317172424 13.130984654258144 -2 4 4
4300 1 4 0.053 15.4333694900197 14.790153774779293 6.90649144199878 -2 4 4
4291 1 1 -0.159 15.332398315462957 15.309274378123307 10.036090497319961 -2 4 4
4295 1 1 -0.106 16.376651836334457 16.079057064475002 9.196136158353713 -2 4 4
555 1 4 0.1268 11.722989926873392 12.604499681644477 8.414486873831914 -2 4 4
556 1 2 -0.1268 10.658632629889489 13.76922016484701 10.168982260604961 -2 4 4
558 1 2 -0.1268 10.778195989658798 13.997147771197094 11.521317461549234 -2 4 4
553 1 4 0.1268 13.654688825315722 12.070846979717913 9.806107798115466 -2 4 4
552 1 2 -0.1268 12.735746813169005 12.443148733048648 10.347344342022645 -2 4 4
551 1 2 0 12.777874972535697 12.62635971341684 11.692212764032273 -2 4 4
561 1 4 0.1268 11.729030054624317 13.649876296653193 13.428695627691404 -2 4 4
560 1 2 -0.1268 11.759934412863217 13.358887976077547 12.32453238488134 -2 4 4
4087 6 2 -0.1268 16.377518564392943 15.027832828564078 13.776402871537535 -2 4 4
554 1 2 -0.1268 11.682271997703007 12.943166016694809 9.551988421653064 -2 4 4
4292 1 4 0.053 14.414472940440117 15.833242806087942 9.843894003674794 -2 4 4
2885 1 4 0.053 16.46013685783044 12.52639739873235 6.304580581798037 -2 4 4
4299 1 1 0.027 16.34174386383594 15.300520363025768 6.691381772099923 -2 4 4
4085 6 2 -0.1268 17.417544249365193 14.16534359982482 13.610217102040863 -2 4 4
4086 6 4 0.1268 18.11504272607278 14.15091604574159 12.684010367478226 -2 4 4
4301 1 4 0.053 16.435710192018863 15.564908600246817 5.614539817303028 -2 4 4
4293 1 4 0.053 15.407388842240094 15.239155407133943 11.170432817223254 -2 4 4
4302 1 6 -0.266 17.47122282009905 14.454830951504217 6.83810184070141 -2 4 4
4306 1 1 0.027 17.33259476882463 17.55583716478018 7.383601295704961 -2 4 4
4296 1 4 0.053 16.434886452699168 17.05217021210291 9.83443819848633 -2 4 4
2902 1 4 0.1268 19.74240931790748 6.287555378310489 5.58308140451974 -2 4 4
3593 5 4 0.1268 21.259744640750927 13.306275968726563 14.221724879918108 -2 4 4
655 7 2 -0.1268 21.656479058630044 16.30460517964381 10.705418620686387 -2 3 4
2192 1 4 0.053 15.307617715683158 8.671847164264797 14.194583971915492 -1 4 4
5008 5 1 -0.106 5.979751327860716 11.562055581231768 6.0476503973725535 -1 4 4
2889 1 4 0.053 19.974272611338222 10.971859005496508 6.331711620844946 -2 4 4
4977 5 3 0.4241 11.533924308411112 16.849091645801494 5.4913350662529234 -1 4 4
3592 5 2 -0.1268 22.212899305581193 12.967649663912528 13.843627700420205 -2 4 4
2873 1 4 0.053 21.453547717726376 11.69586442427007 7.970925921792905 -2 4 4
2872 1 1 -0.159 20.599820832841008 11.651772354686099 8.671623985169056 -2 4 4
2903 1 2 -0.1268 19.668712448111542 8.360140464194574 5.098050577923661 -2 4 4
2876 1 1 -0.106 19.2886614197417 12.445816924420392 8.543881123791657 -2 4 4
2195 1 4 0.053 13.433246949275658 5.85072737538751 14.361048065846456 -1 4 4
2899 1 2 -0.1268 21.586254099844567 6.948873744351372 4.713577586845005 -2 4 4
2040 4 4 0.1268 12.095234705949515 8.137153497732035 4.841978036045326 -2 4 4
2900 1 4 0.1268 22.07411761785307 5.930310191462283 4.830409703841539 -2 4 4
4503 2 4 0.053 5.646145743244113 10.390669684808238 21.808906683093557 -1 4 4
4502 2 1 0.027 6.6050639327666385 10.992233550366404 21.87451270141556 -1 4 4
3792 1 2 -0.1268 9.575176604692519 7.840403672860206 19.660823443727384 -1 4 4
3794 1 2 -0.1268 9.11530287652733 6.748546150998175 18.862157835363284 -1 4 4
3795 1 4 0.1268 9.155850537464987 5.688664723260177 19.185332181591328 -1 4 4
3790 1 2 -0.1268 9.53183245137444 9.110750938425621 19.20515529701975 -1 4 4
3793 1 4 0.1268 10.119237467914175 7.5969609968493 20.604959041956 -1 4 4
1152 6 2 -0.1268 6.30143342029314 4.838570397833748 21.545694191648582 -3 4 4
3785 1 2 0 8.777817686607374 7.010820184123805 17.53598268165517 -1 4 4
3788 1 2 -0.1268 9.037330768402267 9.409693082885468 17.966293807140502 -1 4 4
3786 1 2 -0.1268 8.675451023263621 8.375082589593635 17.025819481228442 -1 4 4
3791 1 4 0.1268 9.90904214600953 9.943398166121803 19.87981183807842 -1 4 4
3789 1 4 0.1268 9.165134878471358 10.439064775603 17.502605597870833 -1 4 4
3782 1 1 0.027 8.356316728951615 5.86137697884201 16.561464335027296 -1 4 4
4504 2 4 0.053 7.232327322847628 10.537414752854733 21.049674107544092 -1 4 4
1153 6 4 0.1268 5.907846883184085 5.75981373595436 22.024907508219485 -3 4 4
4659 6 4 0.1268 5.322548459086616 9.318711398063673 17.077139713016496 -1 4 4
4505 2 6 -0.266 7.1800587967495915 10.867029093260928 23.22559169292092 -1 4 4
4507 2 4 0.053 7.911729977826841 8.861030611405457 23.333530913116352 -1 4 4
4494 2 4 0.053 5.288093471155635 11.82130658814257 19.585265498397764 -1 4 4
3787 1 4 0.1268 8.490800057123861 8.424494909691097 15.901918221237299 -1 4 4
4540 2 4 0.053 5.022006395006161 12.841726047228253 23.278344503866094 -1 4 4
1714 1 4 0.1268 21.29894428528595 4.786768054936445 15.33811207225421 -2 4 4
392 1 4 0.1268 4.812931257117998 5.334456008511275 14.680592752099882 -1 4 4
3781 1 6 -0.266 9.29536335574535 5.408933788354444 15.573203747577276 -1 4 4
2200 1 4 0.053 11.469206917232324 8.029513997224498 15.939487265642352 -1 4 4
3464 6 2 -0.1268 11.413369557134448 6.015907561136256 23.27590626369692 -2 4 4
2211 1 4 0.1268 12.74170046936879 9.441004537306004 18.989813890082353 -1 4 4
3717 2 4 0.053 19.675432840727048 8.799877647018342 24.227436399735417 -2 4 4
3456 6 2 -0.1268 12.629942890136647 5.98813710308707 21.21773070047524 -2 4 4
2201 1 2 0 12.501974597854781 9.49781145583498 16.789742069101642 -1 4 4
2829 6 2 -0.1268 23.2733050708924 5.77513796190498 17.83267696784022 -2 4 4
2199 1 4 0.053 12.431719312866575 7.404341266155759 17.285915901448757 -1 4 4
2197 1 6 -0.266 13.468706054543109 7.654790198675345 15.445989298009293 -1 4 4
2184 1 4 0.053 16.71519149635566 7.4443411421632035 16.073029947105965 -1 4 4
4081 6 4 0.053 16.70489567498526 10.772708541325958 16.029346235254636 -2 4 4
3454 6 4 0.053 14.276536889710268 7.72334090888954 22.508559008478088 -2 4 4
3453 6 4 0.053 12.814416326643922 8.637047876692836 22.749909809069553 -2 4 4
447 6 4 0.053 14.916552930226453 9.116197394526633 20.13687785023885 -2 4 4
443 6 4 0.053 16.199021805247536 7.175124274718389 21.875888138448758 -2 4 4
445 6 1 0.027 15.674525026737161 9.787417193740179 20.605125284873882 -2 4 4
442 6 1 0.027 16.94229543313179 8.009705760066336 22.11960508553774 -2 4 4
3444 6 6 -0.266 16.605713231348858 8.636183650514964 23.3886878282815 -2 4 4
3457 6 4 0.1268 13.418027064003647 6.441941492230316 20.49988210265105 -2 4 4
3680 5 4 0.053 4.840413175286091 15.40205065677275 17.380833030685096 -2 3 4
3455 6 2 0 12.519945305399073 6.443896932549249 22.49310068229029 -2 4 4
3452 6 1 0.027 13.271091936733484 7.671390302427099 23.04711751708192 -2 4 4
2180 1 4 0.053 15.593857303518655 5.6108394083687525 17.087484419220537 -1 4 4
437 6 1 0 16.967769217320704 9.043118331002734 20.9348576548487 -2 4 4
435 6 4 0.053 16.344742203342562 7.403158330794549 19.735308220057078 -2 4 4
2198 1 1 0.027 12.464012615057555 8.080985882535417 16.410754875884134 -1 4 4
2179 1 1 -0.159 16.483459890008106 5.366712775204696 16.570171818785255 -1 4 4
2181 1 4 0.053 17.24620905865114 5.358199846932362 17.32420972554517 -1 4 4
2183 1 1 -0.106 16.67074233354687 6.5643153146140625 15.540719807995622 -1 4 4
448 6 6 -0.266 15.177743084624272 10.444625131000311 21.75132031377043 -2 4 4
2196 1 4 0.053 14.068774278972578 5.7774635706810535 16.022708898943776 -1 4 4
446 6 4 0.053 15.767520475900133 10.608335925089413 19.904514335833053 -2 4 4
434 6 1 -0.106 17.173054644406584 8.105225187240348 19.613436880258696 -2 4 4
2734 7 2 -0.1268 9.013331122142244 17.426369010704448 22.620507678808703 -1 3 4
450 6 4 0.053 13.140784494221528 10.366300247666793 21.164034966383685 -2 4 4
3458 6 2 -0.1268 11.733349336354172 5.053723464300889 20.682707607466114 -2 4 4
2210 1 2 -0.1268 12.439556659721086 10.045929837303554 18.0335738612937 -1 4 4
4080 6 4 0.053 16.0811672177083 11.775660739315192 17.397778053444412 -2 4 4
4079 6 1 0.027 16.882792553136916 11.7138908283594 16.5406936698957 -2 4 4
3443 6 4 0.053 16.220251432375065 6.620726267418193 24.080272624176825 -2 4 4
4541 2 4 0.053 4.8456682207501 14.146863829168357 22.017221696245176 -1 4 4
3721 2 4 0.1268 21.429303667428286 5.8018017429671325 22.833449347906317 -2 4 4
436 6 4 0.053 17.073352374000052 8.646593822942116 18.665099300117873 -2 4 4
3723 2 4 0.1268 22.00473096487615 5.677939163618059 20.575879853414005 -2 4 4
4072 6 1 0.027 19.69929441523058 11.3133410202323 19.507560335306678 -2 4 4
1151 6 4 0.1268 5.571852389860652 5.239298701065673 19.621950580146944 -3 4 4
3727 2 4 0.1268 21.81682032683706 9.94727373929799 20.074214279736083 -2 4 4
444 6 4 0.053 17.903222033988584 7.514611028618765 22.265332309035486 -2 4 4
4128 5 4 0.053 14.022836240705598 17.351160676344648 15.00891968938878 -2 4 4
439 6 4 0.053 17.961077112801018 10.778134911808802 21.983915566631364 -2 4 4
438 6 1 0.027 18.163435839677703 10.073702292853312 21.065009336606092 -2 4 4
433 6 4 0.053 18.263347659357645 6.776100332861033 18.485927297294523 -2 4 4
432 6 4 0.053 18.778063946850352 6.638621410590681 20.269693829596868 -2 4 4
431 6 4 0.053 19.21026974074013 8.086569012185423 19.16623005814934 -2 4 4
430 6 1 -0.159 18.475466656816195 7.374394766599837 19.450020645745973 -2 4 4
3722 2 2 -0.1268 21.627346596697205 6.657763625485465 20.934925904764746 -2 4 4
440 6 4 0.053 19.160254347913188 9.60733757991775 21.27332566449375 -2 4 4
3724 2 2 -0.1268 21.601959847053415 7.7705849260082624 20.078138249373893 -2 4 4
3720 2 2 -0.1268 21.332946396681937 6.761506638570544 22.263262363245023 -2 4 4
3728 2 2 -0.1268 21.506686423611303 9.147696667203903 22.013315318415152 -2 4 4
3719 2 2 0 21.135407999045537 8.061802509432976 22.845520329472123 -2 4 4
3716 2 1 0.027 20.661089472923727 8.528002168272744 24.186647549854023 -2 4 4
2819 6 4 0.053 22.594513991724185 10.439948902431016 17.778628213417917 -2 4 4
4074 6 4 0.053 20.179721883325215 10.560168974821199 18.906187061227655 -2 4 4
3729 2 4 0.1268 21.509125322871487 10.245324220638556 22.480094064938804 -2 4 4
3726 2 2 -0.1268 21.744182467433255 9.057652054679796 20.673566623412384 -2 4 4
4073 6 4 0.053 20.336301734470798 11.452134482892234 20.395950063253892 -2 4 4
441 6 6 -0.266 18.439336884854846 10.843001947285533 19.825911324000103 -2 4 4
2376 4 4 0.1268 23.60566387792108 12.248074961745917 23.360229029844234 -2 3 3
3678 5 4 0.053 4.9149164761280195 16.97288416262886 19.088147210246703 -2 3 4
4070 6 4 0.053 20.913163484291502 11.69801656092062 16.95787853014682 -2 4 4
2827 6 4 0.053 23.780646499208412 7.939922905689402 16.06007275885723 -2 4 4
4158 5 4 0.1268 10.651376834987769 17.73876732587988 18.339752655143407 -2 4 4
4499 2 4 0.053 7.422692341858619 13.42333307305356 23.121408476108048 -1 4 4
4501 2 3 0.4241 8.932447795766132 12.295168249441598 21.662188113546957 -1 4 4
3462 6 2 -0.1268 10.585079440086933 4.9687246966209155 22.814792303161674 -2 4 4
4539 2 1 0.027 4.999523707106552 13.068123498365527 22.31013506249358 -1 4 4
4493 2 1 -0.106 6.1086797672526645 12.565486154935357 19.913752031997532 -1 4 4
4498 2 4 0.053 7.132392344773407 14.394530866258183 21.677876266961036 -1 4 4
4500 2 7 -0.5571 8.62792043867764 13.196037619239975 21.364950519955237 -1 4 4
4156 5 4 0.1268 9.74496769883449 15.389912826877028 18.94474498390718 -2 4 4
4215 7 2 -0.1268 19.906899160081053 16.458328982450283 23.634089622732816 -2 4 3
3784 1 4 0.053 7.4100155835318 6.112733593192978 15.963228681201736 -1 4 4
3682 5 6 -0.266 5.188376678766232 16.79138684118572 15.746572499019896 -2 3 4
733 5 4 0.053 22.797719171619942 17.406368141584267 18.32227660567183 -2 3 3
4496 2 1 0 6.297211678729833 12.468336678932364 21.50277528221038 -1 4 4
4495 2 4 0.053 7.025319139392833 12.395919402247067 19.34763324386003 -1 4 4
4497 2 1 0.027 7.390528572875537 13.39839997260244 21.971528938270318 -1 4 4
4489 2 1 -0.159 5.675915339783814 13.874437107069507 19.25910991269101 -1 4 4
4490 2 4 0.053 6.170874946658303 14.822741233218478 19.683973813352488 -1 4 4
3783 1 4 0.053 8.02077732215783 5.138442493715957 17.225133587456227 -1 4 4
4492 2 4 0.053 5.99120381713627 13.930687647336747 18.187435447963086 -1 4 4
3688 5 4 0.1268 7.887092977666588 17.688911642079248 15.883720384103615 -2 3 4