LAMMPS (22 Dec 2022)
WARNING: Using I/O redirection is unreliable with parallel runs. Better to use the -in switch to read input files. (../lammps.cpp:531)
Reading data file ...
  orthogonal box = (5.3835842 5.3835842 5.3835842) to (37.478536 37.478536 37.478536)
  1 by 2 by 3 MPI processor grid
  reading atoms ...
  2996 atoms
  reading velocities ...
  2996 velocities
  scanning bonds ...
  5 = max bonds/atom
  scanning angles ...
  6 = max angles/atom
  scanning dihedrals ...
  14 = max dihedrals/atom
  scanning impropers ...
  4 = max impropers/atom
  reading bonds ...
  3131 bonds
  reading angles ...
  5396 angles
  reading dihedrals ...
  7142 dihedrals
  reading impropers ...
  2556 impropers
Finding 1-2 1-3 1-4 neighbors ...
  special bond factors lj:    0        0        0       
  special bond factors coul:  0        0        0       
     4 = max # of 1-2 neighbors
     7 = max # of 1-3 neighbors
    15 = max # of 1-4 neighbors
    17 = max # of special neighbors
  special bonds CPU = 0.001 seconds
  read_data CPU = 0.047 seconds
PPPM initialization ...
  using 12-bit tables for long-range coulomb (../kspace.cpp:342)
  G vector (1/distance) = 0.19677283
  grid = 8 8 8
  stencil order = 5
  estimated absolute RMS force accuracy = 0.026522975
  estimated relative force accuracy = 7.987315e-05
  using double precision KISS FFT
  3d grid and FFT values/proc = 1053 128
Generated 36 of 36 mixed pair_coeff terms from sixthpower/geometric mixing rule
Neighbor list info ...
  update: every = 1 steps, delay = 0 steps, check = yes
  max neighbors/atom: 2000, page size: 100000
  master list distance cutoff = 12
  ghost atom cutoff = 12
  binsize = 6, bins = 6 6 6
  1 neighbor lists, perpetual/occasional/extra = 1 0 0
  (1) pair lj/class2/coul/long, perpetual
      attributes: half, newton on
      pair build: half/bin/newton
      stencil: half/bin/3d
      bin: standard
Setting up cg style minimization ...
  Unit style    : real
  Current step  : 0
WARNING: Inconsistent image flags (../domain.cpp:815)
Per MPI rank memory allocation (min/avg/max) = 17.25 | 17.25 | 17.26 Mbytes
   Step          Temp          E_pair         E_mol          TotEng         Press     
         0   492.84444     -2027.0191      17840.758      20213.62       4201.3622    
       444   492.84444     -2613.5187      13942.352      15728.715      4044.559     
Loop time of 5.57448 on 6 procs for 444 steps with 2996 atoms

98.5% CPU use with 6 MPI tasks x no OpenMP threads

Minimization stats:
  Stopping criterion = energy tolerance
  Energy initial, next-to-last, final = 
      15813.7384684871   11328.9193353187   11328.8329850059
  Force two-norm initial, final = 2360.5253 18.769481
  Force max component initial, final = 132.58837 1.6220871
  Final line search alpha, max atom move = 0.0077922296 0.012639675
  Iterations, force evaluations = 444 888

MPI task timing breakdown:
Section |  min time  |  avg time  |  max time  |%varavg| %total
---------------------------------------------------------------
Pair    | 2.5108     | 2.7467     | 2.9946     |  10.5 | 49.27
Bond    | 1.0269     | 1.3744     | 1.5924     |  15.2 | 24.66
Kspace  | 0.79688    | 1.224      | 1.6034     |  27.2 | 21.96
Neigh   | 0.039738   | 0.039751   | 0.03976    |   0.0 |  0.71
Comm    | 0.13505    | 0.14097    | 0.14547    |   0.8 |  2.53
Output  | 0          | 0          | 0          |   0.0 |  0.00
Modify  | 0          | 0          | 0          |   0.0 |  0.00
Other   |            | 0.04868    |            |       |  0.87

Nlocal:        499.333 ave         517 max         486 min
Histogram: 1 2 0 0 0 1 0 0 1 1
Nghost:        6511.83 ave        6593 max        6469 min
Histogram: 1 2 1 0 0 1 0 0 0 1
Neighs:         163540 ave      175851 max      153002 min
Histogram: 1 0 0 1 2 0 1 0 0 1

Total # of neighbors = 981240
Ave neighs/atom = 327.51669
Ave special neighs/atom = 9.2870494
Neighbor list builds = 10
Dangerous builds = 0
PPPM initialization ...
  using 12-bit tables for long-range coulomb (../kspace.cpp:342)
  G vector (1/distance) = 0.19677283
  grid = 8 8 8
  stencil order = 5
  estimated absolute RMS force accuracy = 0.026522975
  estimated relative force accuracy = 7.987315e-05
  using double precision KISS FFT
  3d grid and FFT values/proc = 1053 128
Generated 36 of 36 mixed pair_coeff terms from sixthpower/geometric mixing rule
Setting up Verlet run ...
  Unit style    : real
  Current step  : 444
  Time step     : 1
WARNING: Inconsistent image flags (../domain.cpp:815)
Per MPI rank memory allocation (min/avg/max) = 16.13 | 16.13 | 16.13 Mbytes
   Step          Temp          E_pair         E_mol          TotEng         Press          Volume    
       444   492.84444     -2613.5187      13942.352      15728.715      4044.559       33060.56     
     50444   591.69518     -1501.5305      18970.052      22750.895      505.68346      48226.76     
Loop time of 218.757 on 6 procs for 50000 steps with 2996 atoms

Performance: 19.748 ns/day, 1.215 hours/ns, 228.564 timesteps/s, 684.777 katom-step/s
98.8% CPU use with 6 MPI tasks x no OpenMP threads

MPI task timing breakdown:
Section |  min time  |  avg time  |  max time  |%varavg| %total
---------------------------------------------------------------
Pair    | 66.815     | 72.476     | 77.781     |  45.7 | 33.13
Bond    | 50.416     | 61.221     | 66.953     |  72.9 | 27.99
Kspace  | 51.161     | 62.137     | 75.653     |  92.8 | 28.40
Neigh   | 10.949     | 10.96      | 10.981     |   0.3 |  5.01
Comm    | 6.8148     | 6.8918     | 6.9592     |   2.2 |  3.15
Output  | 3.6388e-05 | 4.931e-05  | 0.00011226 |   0.0 |  0.00
Modify  | 2.9816     | 3.1675     | 3.5208     |  11.8 |  1.45
Other   |            | 1.904      |            |       |  0.87

Nlocal:        499.333 ave         537 max         460 min
Histogram: 1 1 1 0 0 0 0 0 1 2
Nghost:        5313.33 ave        5382 max        5242 min
Histogram: 1 0 1 1 0 1 0 0 0 2
Neighs:         112803 ave      126391 max       98027 min
Histogram: 1 1 0 1 0 0 1 0 1 1

Total # of neighbors = 676816
Ave neighs/atom = 225.90654
Ave special neighs/atom = 9.2870494
Neighbor list builds = 3344
Dangerous builds = 0
PPPM initialization ...
  using 12-bit tables for long-range coulomb (../kspace.cpp:342)
  G vector (1/distance) = 0.19599685
  grid = 9 9 9
  stencil order = 5
  estimated absolute RMS force accuracy = 0.022642673
  estimated relative force accuracy = 6.8187738e-05
  using double precision KISS FFT
  3d grid and FFT values/proc = 1120 162
Generated 36 of 36 mixed pair_coeff terms from sixthpower/geometric mixing rule
Setting up Verlet run ...
  Unit style    : real
  Current step  : 0
  Time step     : 1
WARNING: Inconsistent image flags (../domain.cpp:815)
Per MPI rank memory allocation (min/avg/max) = 17.41 | 17.42 | 17.42 Mbytes
   Step          Temp          PotEng         E_vdwl         E_coul         E_bond        E_angle        E_dihed        E_impro        Density         Volume          CPU      
         0   591.69518      17470.339     -1173.3299      1214.2585      2442.7403      16219.379      243.99446      63.937942      0.73475979     48226.76       0            
       100   597.38755      17421.644     -1135.1972      1220.2941      2392.7378      16222.964      194.99065      68.440706      0.7350431      48208.172      0.40461179   
       200   604.56051      17309.998     -1137.6169      1210.4929      2302.9553      16214.718      198.45543      66.551067      0.73459898     48237.317      0.81426848   
       300   589.09586      17314.593     -1157.1212      1216.5274      2489.5009      16129.554      126.29241      54.167733      0.73475017     48227.391      1.221488     
       400   583.09026      17347.49      -1139.1597      1224.6606      2350.2256      16203.209      172.75504      78.866235      0.73544027     48182.137      1.6375374    
       500   606.60073      17327.261     -1122.065       1212.4215      2266.5386      16137.854      309.50994      66.46889       0.73609969     48138.974      2.0498997    
       600   605.82696      17402.373     -1179.3737      1215.7219      2413.3536      16168.129      266.76145      56.711653      0.73538094     48186.025      2.4635777    
       700   592.27762      17466.912     -1107.6935      1213.916       2313.406       16319.791      204.28963      63.070226      0.73448327     48244.916      2.8933393    
       800   601.03359      17343.075     -1112.0348      1201.7479      2359.6153      16133.172      230.47957      72.050058      0.73318084     48330.619      3.2997707    
       900   585.64081      17433.925     -1116.943       1202.9339      2254.8458      16164.741      400.64104      69.100834      0.73017275     48529.727      3.6992238    
      1000   597.99465      17378.229     -1154.679       1206.1417      2321.3056      16231.149      233.49205      82.672194      0.72643985     48779.103      4.0999498    
      1100   599.67934      17479.743     -1116.9733      1219.7753      2311.9655      16110.311      425.07276      72.79012       0.723283       48992.005      4.6024121    
      1200   611.382        17458.467     -1118.6831      1221.1065      2331.2172      16202.919      298.8393       64.334583      0.7212377      49130.937      5.0130569    
      1300   612.485        17456.488     -1106.4667      1213.6324      2336.9582      16155.581      321.064        74.712166      0.71980431     49228.774      5.4276709    
      1400   596.90569      17380.547     -1139.585       1203.9871      2364.6634      16180.554      254.07109      56.856005      0.71865469     49307.525      5.8566175    
      1500   587.09018      17418.879     -1124.8869      1205.4231      2333.332       16252.327      243.20437      50.044482      0.7182444      49335.691      6.2472211    
      1600   605.52093      17371.296     -1135.4165      1207.3919      2342.9289      16157.805      280.11787      56.384382      0.717469       49389.01       6.6314813    
      1700   610.04821      17420.596     -1085.1997      1209.2157      2369.1134      16105.127      308.68579      52.233223      0.71730653     49400.197      7.0176694    
      1800   618.84359      17355.287     -1108.1211      1202.6433      2349.3415      16206.779      171.806        74.543791      0.71721845     49406.264      7.4044267    
      1900   607.88252      17392.454     -1074.545       1195.1854      2330.4361      16159.675      267.75024      57.630841      0.71795679     49355.455      7.7888778    
      2000   599.35804      17454.801     -1111.7424      1210.6243      2373.5763      16163.967      288.13561      73.315361      0.71838356     49326.135      8.1663434    
      2100   592.94745      17511.091     -1108.5467      1230.4554      2493.1073      16113.435      264.64249      59.372036      0.71865146     49307.747      8.550199     
      2200   587.93945      17568.779     -1075.3454      1211.4895      2400.6047      16261.529      247.66765      67.087376      0.71998167     49216.647      8.9350493    
      2300   600.34939      17544         -1147.4181      1209.6068      2391.4228      16213.188      352.23637      68.762902      0.7223012      49058.598      9.3153824    
      2400   611.89085      17530.688     -1102.7384      1202.9573      2507.5761      16224.094      195.01313      46.226389      0.72567457     48830.544      9.7038915    
      2500   610.39731      17438.434     -1092.6244      1204.0766      2416.0647      16156.118      228.36913      70.18484       0.72924893     48591.205      10.122585    
      2600   600.33881      17349.193     -1141.5601      1196.5597      2340.9786      16246.853      159.31221      89.157679      0.73188553     48416.156      10.568813    
      2700   600.98186      17336.217     -1102.5         1204.2182      2350.6837      16117.618      248.12339      58.516845      0.73460008     48237.245      10.990128    
      2800   598.28102      17417.147     -1166.0653      1207.7446      2436.5389      16174.715      230.33745      75.013634      0.73667173     48101.593      11.379645    
      2900   605.1233       17422.401     -1138.1581      1189.8535      2354.4412      16267.708      202.03369      87.088766      0.73959922     47911.197      11.77934     
      3000   615.96301      17393.116     -1165.6909      1184.3234      2321.045       16062.881      449.0792       81.527995      0.7412792      47802.615      12.171923    
      3100   597.80551      17466.542     -1150.3218      1199.8378      2355.9514      16291.446      232.88379      76.224397      0.74151585     47787.359      12.5493      
      3200   589.10714      17357.276     -1174.7447      1204.7435      2396.9582      16143.888      255.58235      70.852964      0.74151831     47787.2        12.935892    
      3300   586.39674      17361.246     -1155.4329      1223.1955      2318.4235      16178.794      257.65933      78.383106      0.74123586     47805.41       13.318534    
      3400   605.94997      17307.263     -1129.5302      1222.8881      2261.7922      16175.935      246.52452      69.716033      0.74062661     47844.735      13.70224     
      3500   606.30639      17401.343     -1158.3739      1223.3171      2385.9091      16118.002      305.33307      67.554892      0.74093747     47824.662      14.089523    
      3600   604.37198      17421.777     -1162.3792      1228.8105      2321.8503      16112.099      386.90488      73.57226       0.74162744     47780.168      14.471466    
      3700   593.28247      17485.195     -1143.4739      1204.3681      2450.6283      16222.894      216.74006      72.278946      0.74280126     47704.663      14.846425    
      3800   597.26096      17398.6       -1130.9286      1189.0587      2454.4311      16064.809      290.07293      72.589867      0.7437874      47641.415      15.228869    
      3900   597.6799       17376.908     -1134.6968      1206.368       2314.9165      16165.408      278.34363      87.380963      0.7447257      47581.39       15.613938    
      4000   586.90215      17506.245     -1165.9168      1201.9663      2487.4584      16122.976      321.49958      78.408212      0.74421804     47613.847      16.013145    
      4100   613.54958      17380.333     -1159.5165      1197.0005      2359.8708      16139.185      305.52587      80.856631      0.74398369     47628.845      16.397257    
      4200   605.14128      17431.54      -1158.4034      1190.0153      2371.5407      16202.756      299.08179      70.239759      0.74370447     47646.727      16.785661    
      4300   591.24818      17357.792     -1174.5148      1185.0216      2387.1671      16058.42       388.01557      57.609749      0.74282358     47703.23       17.187127    
      4400   599.33098      17259.29      -1193.1115      1200.9868      2206.142       16108.285      407.63306      72.845873      0.74080406     47833.275      17.56674     
      4500   599.92623      17291.887     -1173.0352      1202.144       2257.7548      16219.651      274.36419      54.079871      0.73844667     47985.976      17.944688    
      4600   608.76979      17363.17      -1185.3636      1201.4775      2437.8158      16115.056      259.28125      77.704505      0.73739574     48054.365      18.328501    
      4700   616.13331      17424.004     -1165.3184      1196.1175      2362.2589      16172.896      348.13236      53.245773      0.73656898     48108.304      18.710489    
      4800   598.61369      17434.314     -1167.0531      1209.6344      2390.618       16250.934      220.45138      72.706859      0.73505846     48207.164      19.085003    
      4900   587.69677      17409.237     -1106.2142      1203.148       2420.1495      16079.112      266.20439      88.531836      0.73354853     48306.394      19.469461    
      5000   602.47238      17304.53      -1172.4318      1210.4289      2318.8292      16175.902      234.63222      78.827541      0.73144814     48445.108      19.853691    
      5100   601.91707      17354.537     -1153.3839      1194.0062      2292.434       16209.656      264.9167       88.84257       0.72961137     48567.066      20.229691    
      5200   609.6718       17358.683     -1178.3628      1195.7818      2421.4115      15987.765      395.65671      77.903381      0.72758771     48702.148      20.621455    
      5300   612.79423      17374.258     -1119.9758      1199.5854      2370.4509      16124.197      266.93855      74.184861      0.72648488     48776.079      21.003579    
      5400   605.74316      17362.698     -1151.0845      1211.0323      2350.3261      16083.605      336.89077      74.075376      0.723433       48981.847      21.385734    
      5500   582.33571      17419.61      -1143.5096      1210.9822      2368.1865      16134.868      313.81877      77.472821      0.72049772     49181.397      21.768707    
      5600   598.48936      17265.567     -1188.2486      1207.8757      2359.8991      16149.005      201.46312      73.71777       0.71740872     49393.161      22.160771    
      5700   604.80356      17367.696     -1138.6109      1200.7822      2355.6778      16141.992      265.90501      77.560831      0.71446616     49596.588      22.542836    
      5800   603.93369      17498.645     -1091.2873      1212.2608      2431.0299      16109.28       286.94522      85.331119      0.71218093     49755.733      22.930392    
      5900   601.81364      17464.417     -1086.5077      1217.341       2318.8914      16215.332      242.76216      90.772674      0.71006442     49904.041      23.304469    
      6000   595.30494      17462.851     -1093.1307      1192.3892      2431.5613      16108.576      289.52146      72.211963      0.70756052     50080.641      23.689219    
      6100   597.95359      17360.951     -1104.6746      1194.5464      2368.0755      16180.23       176.15052      87.112795      0.70478201     50278.077      24.074481    
      6200   578.1538       17414.037     -1087.8394      1199.4445      2362.541       16226.937      189.64852      63.488149      0.70239166     50449.181      24.463719    
      6300   589.07516      17236.281     -1124.8004      1206.3268      2331.5486      16015.745      281.37832      66.288519      0.70035032     50596.227      24.854157    
      6400   594.22067      17369.636     -1124.8806      1195.4538      2371.2674      16106.722      276.01736      86.483878      0.69948558     50658.777      25.247779    
      6500   592.6782       17510.042     -1114.7617      1215.2421      2364.0407      16158.362      349.99225      80.687006      0.70028941     50600.628      25.625565    
      6600   606.99198      17398.333     -1106.1637      1204.0319      2345.6078      16208.321      227.15086      62.636652      0.70197619     50479.04       26.013051    
      6700   597.18263      17426.798     -1091.5861      1215.538       2305.7017      16149.323      319.76067      71.777142      0.70299132     50406.148      26.403108    
      6800   591.81382      17339.236     -1109.8699      1214.7724      2294.4081      16167.955      246.03589      71.325908      0.70370475     50355.044      26.79303     
      6900   595.35764      17222.894     -1107.2836      1206.9976      2228.3673      16149.555      207.32445      83.86814       0.70366562     50357.845      27.188759    
      7000   590.78541      17413.56      -1135.8303      1204.6308      2454.7416      16202.312      151.00702      83.440419      0.70319008     50391.9        27.671034    
      7100   599.25947      17482.222     -1096.3852      1206.8642      2333.6603      16114.661      371.61094      96.019462      0.70314044     50395.457      28.059009    
      7200   610.55398      17373.536     -1143.0453      1205.6595      2358.8396      16204.731      217.16932      73.618192      0.70320141     50391.088      28.472165    
      7300   605.24353      17341.824     -1138.0105      1215.1268      2258.4802      16132.712      342.26208      74.303493      0.70311257     50397.455      28.85652     
      7400   579.36329      17453.535     -1127.1468      1196.9898      2322.9106      16174.615      355.23082      72.855803      0.70237856     50450.122      29.247428    
      7500   588.36769      17302.332     -1125.6179      1195.5291      2310.3469      16007.454      396.16128      61.759878      0.70097463     50551.164      29.630781    
      7600   593.72201      17381.871     -1110.3224      1203.4067      2311.864       16100.633      337.71583      80.291493      0.69961674     50649.28       30.023734    
      7700   600.33719      17492.299     -1092.5404      1202.017       2340.8958      16171.332      328.81235      82.430875      0.69831449     50743.733      30.419441    
      7800   603.03014      17513.273     -1147.0551      1197.1547      2385.1598      16125.673      402.41511      88.683412      0.69644266     50880.117      30.812555    
      7900   595.47342      17539.704     -1063.3724      1190.3548      2379.8635      16182.239      296.5365       94.197854      0.69528852     50964.575      31.227414    
      8000   587.16635      17445.368     -1080.5785      1192.4152      2356.4618      16197.151      248.96264      70.505308      0.69370394     51080.99       31.623833    
      8100   588.80501      17336.531     -1085.921       1190.3936      2314.4634      16120.107      258.81821      81.412354      0.6925573      51165.563      32.011472    
      8200   593.07104      17391.874     -1082.6808      1201.955       2384.8393      16119.246      240.86333      71.538099      0.69233345     51182.106      32.387128    
      8300   602.31172      17368.113     -1087.0062      1205.5028      2309.2548      16140.025      259.1084       81.1179        0.69234509     51181.246      32.766858    
      8400   604.46836      17391.303     -1068.3451      1209.3157      2284.1958      16120.586      293.45863      90.469881      0.69339318     51103.883      33.219721    
      8500   592.86766      17536.984     -1111.7915      1212.8479      2427.7672      16245.334      234.38275      64.90969       0.69457476     51016.947      33.605886    
      8600   591.8854       17584.179     -1114.7702      1199.972       2444.9965      16229.225      293.66186      69.256936      0.6962943      50890.958      33.993668    
      8700   603.25132      17478.884     -1090.2306      1205.608       2394.9829      16112.926      306.74892      85.603668      0.69848903     50731.053      34.381863    
      8800   591.23682      17482.869     -1094.6998      1210.4097      2388.0907      16174.036      288.01277      57.906058      0.70133295     50525.338      34.771449    
      8900   598.94968      17291.567     -1123.2386      1201.036       2325.9621      16116.75       252.40182      59.891992      0.70443061     50303.158      35.165937    
      9000   593.24668      17300.948     -1093.9757      1200.6035      2382.9144      16029.982      244.6707       76.328591      0.70868233     50001.365      35.554599    
      9100   596.33012      17394.91      -1114.4287      1201.3843      2413.8312      16209.259      153.11954      68.651264      0.71270083     49719.437      35.934498    
      9200   601.03622      17524.748     -1107.1012      1206.1305      2381.9593      16177.624      333.94593      69.763182      0.7161021      49483.285      36.315884    
      9300   614.80952      17364.405     -1138.4874      1203.3899      2264.5603      16237.642      255.25493      76.391898      0.71847709     49319.713      36.693637    
      9400   585.7873       17477.023     -1096.9545      1215.764       2383.1021      16198.006      241.13276      68.974182      0.72034376     49191.908      37.099086    
      9500   595.44643      17312.11      -1148.0454      1242.2827      2348.8751      16212.365      134.11884      55.838973      0.72190408     49085.585      37.475187    
      9600   603.82963      17275.655     -1092.9276      1227.9963      2349.9102      16123.948      136.26948      66.587447      0.72406974     48938.772      37.85984     
      9700   598.20222      17404.175     -1134.0746      1216.2375      2417.8327      16182.912      183.41144      73.797492      0.72457895     48904.38       38.238042    
      9800   587.59502      17546.38      -1094.3831      1210.941       2404.3685      16207.559      280.95248      73.289633      0.72512105     48867.819      38.619706    
      9900   601.70565      17428.508     -1156.3443      1210.6004      2425.5672      16216.836      192.48697      75.424702      0.72511554     48868.19       39.009836    
     10000   602.94777      17391.382     -1096.9357      1212.9143      2324.8515      16012.495      404.5373       69.178835      0.7263409      48785.748      39.399091    
     10100   598.96654      17391.553     -1130.22        1200.0153      2357.2386      16110.256      305.16085      87.685715      0.7262537      48791.606      39.783019    
     10200   582.11431      17380.016     -1100.965       1197.0834      2358.2978      16107.207      296.20294      63.382193      0.72557963     48836.933      40.167292    
     10300   588.00798      17311.931     -1149.5501      1208.5796      2348.6315      16155.099      230.95676      59.372026      0.72447829     48911.175      40.550674    
     10400   604.67778      17337.288     -1155.6996      1222.8457      2286.774       16189.562      252.7624       80.735711      0.72342385     48982.466      40.94258     
     10500   609.82206      17393.97      -1085.9523      1216.4458      2316.1931      16159.235      259.43963      69.556076      0.72357189     48972.444      41.975516    
     10600   598.6013       17461.785     -1126.3387      1239.1934      2369.6461      16157.76       294.1247       68.710926      0.72294522     49014.895      42.387129    
     10700   593.40149      17428.453     -1103.1729      1214.5714      2294.193       16101.725      374.88604      85.172606      0.72314905     49001.08       42.781591    
     10800   584.39282      17380.005     -1139.8663      1207.5549      2401.6198      16120.872      254.86558      76.438279      0.72277816     49026.224      43.222287    
     10900   581.2295       17346.258     -1150.4096      1210.1583      2300.9094      16126.316      338.26612      62.444718      0.72256617     49040.608      43.614422    
     11000   597.81374      17398.599     -1131.8148      1201.1593      2431.0362      16078.386      301.24171      60.70197       0.72266408     49033.963      44.008292    
     11100   606.60804      17407.68      -1164.7644      1205.769       2341.7954      16124.709      371.3099       71.326108      0.72298767     49012.017      44.403762    
     11200   603.21348      17393.649     -1102.2214      1198.9888      2420.5231      16091.604      256.42377      68.361189      0.72497897     48877.396      44.801406    
     11300   597.05248      17322.365     -1141.4346      1189.7263      2345.7887      16112.467      281.81124      73.182826      0.72658089     48769.634      45.196021    
     11400   590.59282      17235.685     -1170.9783      1201.8297      2301.5559      16080.097      289.81879      74.058084      0.72807147     48669.788      45.598821    
     11500   586.83563      17310.146     -1127.8542      1216.5407      2366.9622      16075.555      257.52198      59.40618       0.73027404     48522.996      45.987907    
     11600   594.99173      17291.835     -1151.4255      1208.1714      2414.7368      16149.103      142.05649      70.899444      0.73343532     48313.85       46.369939    
     11700   595.1693       17372.366     -1098.3764      1209.685       2367.3099      16116.52       251.43832      67.159225      0.73791842     48020.327      46.753674    
     11800   609.47423      17328.444     -1150.9876      1215.5351      2295.2465      16156.73       279.04867      75.645837      0.7411533      47810.735      47.142671    
     11900   613.00547      17311.397     -1174.154       1204.8906      2270.8668      16224.317      250.43564      77.212499      0.74495098     47567.001      47.529226    
     12000   602.13389      17261.2       -1170.7014      1220.5102      2327.793       15994.376      377.32744      52.813289      0.74725588     47420.282      47.925212    
     12100   588.98365      17254.153     -1163.3535      1211.5465      2334.3047      16092.239      241.65667      78.913791      0.74895403     47312.763      48.30901     
     12200   590.42823      17286.392     -1128.6088      1209.3342      2278.1514      16065.435      311.1959       91.616614      0.74975263     47262.367      48.688952    
     12300   597.52462      17400.52      -1165.174       1204.5995      2371.633       16193.959      255.68698      80.982062      0.74909551     47303.826      49.116354    
     12400   606.91785      17335.111     -1098.1913      1201.6012      2369.2151      16034.1        280.56445      89.845773      0.74679103     47449.799      49.54125     
     12500   595.28697      17398.338     -1141.6728      1204.1377      2533.1843      16152.776      119.01682      73.448402      0.74333103     47670.664      49.924599    
     12600   590.9295       17360.598     -1142.4523      1205.8555      2320.6693      16121.074      319.53711      77.341339      0.73997375     47886.948      50.31739     
     12700   579.27933      17333.604     -1155.5615      1207.1242      2316.7829      16029.28       399.12881      79.509518      0.73712485     48072.025      50.769489    
     12800   581.4404       17203.19      -1135.7331      1207.6586      2250.4959      16072.482      270.23681      79.09802       0.73460652     48236.822      51.178224    
     12900   584.81608      17403.84      -1112.5699      1216.8509      2405.1338      16146.682      219.53789      68.307549      0.73262593     48367.226      51.599701    
     13000   599.08752      17405.603     -1155.8108      1211.9958      2368.4185      16111.247      325.81155      86.220079      0.73064934     48498.072      52.075675    
     13100   602.17317      17423.169     -1152.6193      1230.5141      2423.8357      16158.449      229.17521      77.27534       0.72966247     48563.665      52.491257    
     13200   592.91793      17488.424     -1135.2532      1221.8804      2452.757       16200.994      222.33447      69.049295      0.72977773     48555.995      52.927327    
     13300   602.10937      17347.123     -1141.8895      1198.987       2362.3355      16122.908      265.33946      82.326627      0.7318594      48417.885      53.336246    
     13400   590.04857      17312.428     -1163.7896      1198.2421      2350.5081      16192.815      198.20073      79.956239      0.73429201     48257.483      53.770109    
     13500   584.30769      17317.031     -1131.785       1198.3849      2440.7027      16116.507      167.58402      67.621443      0.7370494      48076.946      54.215518    
     13600   602.67447      17351.474     -1181.9025      1197.9192      2368.9379      16113.531      320.58791      73.419729      0.73791811     48020.348      54.622636    
     13700   622.34149      17261.426     -1149.81        1210.8427      2313.1694      16140.52       223.22031      67.490151      0.73804218     48012.275      55.056526    
     13800   608.44914      17294.936     -1200.0242      1216.5151      2329.5462      16086.451      336.42447      70.73968       0.73629126     48126.449      55.480365    
     13900   600.42965      17263.416     -1127.5995      1217.8292      2377.36        16077.539      200.79277      60.515681      0.73432434     48255.358      55.874849    
     14000   575.88374      17444.184     -1172.9697      1216.8552      2324.5497      16168.569      369.09502      81.130024      0.73149128     48442.251      56.268662    
     14100   606.99973      17344.52      -1173.1783      1221.9219      2303.7222      16139.273      330.66032      64.063199      0.7297746      48556.204      56.65874     
     14200   614.50646      17404.802     -1149.8918      1216.4935      2466.9725      16144.838      209.43818      56.766771      0.72714169     48732.021      57.053639    
     14300   600.73425      17430.221     -1110.0661      1223.4737      2390.7706      16122.204      279.84972      64.713542      0.72428066     48924.52       57.433468    
     14400   592.78215      17390.16      -1158.5228      1223.0044      2449.6799      16153.082      192.99314      73.323346      0.72041833     49186.816      57.818503    
     14500   585.74893      17416.341     -1167.8372      1217.641       2442.0063      16144.831      244.85107      78.316754      0.71711656     49413.283      58.224386    
     14600   589.95424      17418.425     -1130.2826      1214.3953      2323.157       16173.677      318.57782      60.848694      0.71530134     49538.68       58.637909    
     14700   622.32523      17386.917     -1148.7482      1214.0169      2345.7524      16155.918      284.25242      76.276258      0.71346174     49666.411      59.11848     
     14800   625.57824      17381.889     -1080.9414      1229.4226      2381.4065      16057.085      259.64741      76.499724      0.71216929     49756.546      59.524423    
     14900   605.03546      17390.766     -1114.9838      1213.6949      2388.5585      16229.517      140.18318      75.963433      0.71157201     49798.311      59.917864    
     15000   583.98145      17496.304     -1108.3202      1209.8711      2384.5529      16193.867      274.25094      83.804593      0.71201074     49767.626      60.367375    
     15100   590.79314      17454.012     -1128.8242      1214.5959      2337.8475      16301.175      192.52742      79.17955       0.71312377     49689.949      60.796264    
     15200   600.24672      17469.644     -1111.7513      1201.7197      2416.9761      16178.492      251.57427      75.795482      0.71555985     49520.783      61.229389    
     15300   613.44165      17723.327     -1116.7038      1202.0816      2443.3191      16287.533      369.07336      79.107504      0.7179638      49354.973      61.674842    
     15400   607.84564      17529.781     -1146.6927      1217.082       2399.3438      16237.28       300.47107      64.212014      0.72000762     49214.874      62.132269    
     15500   604.46677      17420.821     -1169.599       1240.8765      2363.1786      16060.688      394.43447      71.077522      0.72293965     49015.273      62.570767    
     15600   582.77739      17484.603     -1122.2924      1225.8642      2388.1697      16224.365      242.25663      68.027709      0.72717743     48729.626      62.984127    
     15700   586.01939      17400.543     -1179.8094      1213.5039      2408.6172      16201.085      222.02214      75.771619      0.73185519     48418.163      63.407726    
     15800   595.60956      17342.128     -1131.0355      1209.0582      2398.3138      16093.997      240.79372      73.455972      0.73746299     48049.983      63.804527    
     15900   618.65299      17289.62      -1177.1807      1212.7192      2277.2801      16257.688      212.71427      46.303593      0.74178236     47770.19       64.259479    
     16000   616.13522      17388.852     -1182.3184      1208.4315      2262.2501      16235.024      341.74306      63.568132      0.74536232     47540.75       64.67052     
     16100   607.40204      17363.853     -1175.5965      1202.5174      2318.8422      16149.223      336.74859      71.811858      0.74691959     47441.632      65.074668    
     16200   592.49309      17317.022     -1169.5674      1198.9393      2253.1213      16167.4        333.40641      74.887164      0.74601925     47498.887      65.4862      
     16300   591.64761      17337.091     -1158.7667      1200.3911      2357.6752      16114.552      308.01066      56.264848      0.74353532     47657.567      65.88182     
     16400   606.70861      17247.005     -1181.2721      1214.7333      2385.297       16115.644      181.58948      73.52825       0.74151662     47787.31       66.287058    
     16500   597.62786      17366.994     -1156.3823      1199.5324      2353.9226      16189.873      241.09601      80.995178      0.73971148     47903.926      66.694331    
     16600   591.19155      17450.7       -1122.7069      1186.6837      2402.4992      16246.991      193.68355      84.262847      0.73847449     47984.168      67.124177    
     16700   599.38486      17281.335     -1147.6147      1205.7275      2235.1306      16259.74       199.02331      69.473267      0.7366004      48106.252      67.537449    
     16800   587.61293      17271.255     -1137.2454      1216.4736      2299.0822      16136.896      225.93205      73.210252      0.73424027     48260.883      67.984139    
     16900   590.44769      17307.061     -1167.6303      1232.6701      2387.8734      16101.896      222.54123      73.406438      0.73274553     48359.332      68.492205    
     17000   596.36462      17450.998     -1154.4553      1239.8559      2374.7987      16180.338      286.07129      65.881652      0.7311257      48466.473      68.931241    
     17100   600.51153      17442.588     -1145.4326      1221.1338      2394.4142      16185.495      249.61754      76.841024      0.72959866     48567.913      69.363689    
     17200   605.37428      17337.631     -1144.1194      1214.4485      2364.1908      16121.735      240.41398      80.141879      0.72839263     48648.329      69.822864    
     17300   585.93615      17406.832     -1132.8946      1208.0599      2410.3144      16112.93       282.08247      66.646212      0.72726134     48724.004      70.213846    
     17400   577.95554      17371.15      -1158.2344      1203.2406      2338.091       16180.091      295.31493      54.709704      0.72570425     48828.547      70.609925    
     17500   588.23557      17287.565     -1153.3514      1212.7252      2373.3416      16002.528      311.92235      83.6612        0.72452626     48907.936      71.006317    
     17600   603.57424      17350.004     -1123.6435      1196.5447      2312.1357      16078.417      354.07385      74.698788      0.72367907     48965.191      71.420348    
     17700   598.17557      17517.483     -1110.4073      1202.7536      2341.018       16142.815      417.50658      63.381269      0.72210041     49072.239      71.823844    
     17800   617.19379      17360.167     -1161.5528      1208.155       2260.234       16192.05       334.57004      66.572914      0.71965693     49238.856      72.224302    
     17900   597.09415      17409.286     -1101.3941      1208.2736      2503.0438      16158.843      117.68605      62.682975      0.71893641     49288.203      72.626337    
     18000   584.40994      17420.736     -1144.1835      1212.6677      2396.2935      16146.392      284.05977      63.275271      0.71784331     49363.257      73.022895    
     18100   589.75244      17413.36      -1133.6911      1204.9263      2323.7861      16231.482      254.6051       72.93624       0.71732481     49398.938      73.414103    
     18200   617.23036      17407.614     -1090.1741      1210.6464      2385.3129      16101.027      279.55656      60.225374      0.7178692      49361.477      73.800982    
     18300   611.22955      17490.985     -1125.668       1228.7363      2413.9303      16141.595      281.59466      88.156495      0.71662849     49446.937      74.195464    
     18400   616.65423      17319.038     -1124.6876      1222.1831      2380.7349      16028.001      285.90967      64.8766        0.71482971     49571.364      74.581123    
     18500   590.0761       17459.223     -1137.055       1211.7075      2391.412       16242.843      216.16535      70.204406      0.71244812     49737.073      74.968735    
     18600   600.05009      17334.404     -1095.4137      1215.5072      2327.2631      16130.236      230.43493      63.113242      0.71074518     49856.243      75.359974    
     18700   611.56797      17214.94      -1105.795       1212.3231      2306.5732      16076.595      219.85093      42.579864      0.70860918     50006.527      75.753449    
     18800   603.16348      17421.094     -1100.8828      1211.2784      2290.3581      16274.458      220.82973      65.113384      0.70590469     50198.114      76.128505    
     18900   602.80299      17564.812     -1083.5423      1206.4576      2490.3402      16182.636      244.49808      64.768265      0.70266091     50429.849      76.52079     
     19000   614.69647      17369.193     -1095.7038      1212.921       2294.2117      16170.198      279.84971      50.05919       0.69869852     50715.842      76.902127    
     19100   593.27219      17429.663     -1119.7649      1211.9611      2394.2865      16166.996      263.90868      55.331537      0.6951373      50975.662      77.283574    
     19200   589.57415      17439.623     -1123.406       1207.3828      2319.9371      16199.26       305.04646      71.774537      0.69236583     51179.712      77.670758    
     19300   604.64966      17345.65      -1091.2454      1211.0703      2371.444       16082.004      258.9473       53.443549      0.69078995     51296.467      78.054823    
     19400   599.84413      17468.278     -1089.977       1210.2175      2382.1478      16144.882      304.22314      56.437372      0.68864361     51456.346      78.441734    
     19500   605.05443      17510.226     -1107.2053      1220.7139      2345.8348      16185.354      344.17489      59.728712      0.68658801     51610.403      78.839033    
     19600   607.63374      17599.889     -1100.6741      1233.2306      2353.6069      16300.382      267.59221      82.806868      0.68483312     51742.656      79.219432    
     19700   607.0671       17562.516     -1031.0349      1216.3233      2377.4156      16101.56       368.42059      69.017961      0.6831778      51868.026      79.612235    
     19800   604.37152      17403.495     -1085.6597      1215.1579      2400.9774      16073.518      266.79102      72.402206      0.68096303     52036.722      80.004632    
     19900   590.33521      17474.22      -1070.0571      1218.466       2362.3972      16154.343      275.46246      74.903294      0.67907066     52181.733      80.400217    
     20000   602.86714      17421.188     -1039.0526      1207.2432      2312.9679      16126.974      279.91707      71.31689       0.67749575     52303.035      80.774376    
     20100   611.50337      17496.384     -1057.9603      1207.1025      2327.5067      16168.385      335.09566      55.315433      0.67556357     52452.627      81.158086    
     20200   617.43345      17609.161     -1008.6627      1209.0593      2451.72        16149.509      271.69634      75.313923      0.67395473     52577.84       81.545653    
     20300   610.41831      17522.98      -1069.9177      1210.6018      2431.9489      16195.472      225.67895      68.757612      0.67183942     52743.383      81.920581    
     20400   598.49721      17459.225     -1059.6009      1215.8345      2384.2505      16140.348      258.18058      60.189148      0.67059007     52841.647      82.299853    
     20500   601.61361      17401.968     -1058.4094      1220.5837      2330.5728      16109.155      283.40438      52.06726       0.67038162     52858.078      82.680755    
     20600   599.88081      17474.467     -1030.8217      1206.0014      2307.9475      16234.225      235.369        55.149062      0.67108256     52802.868      83.054793    
     20700   600.38802      17582.356     -1049.8527      1216.4219      2261.1979      16335.827      291.23961      66.646562      0.67201951     52729.249      83.435112    
     20800   617.71662      17500.296     -1054.5796      1202.7025      2513.1677      16067.113      259.61556      51.124832      0.67259709     52683.968      83.814084    
     20900   598.26938      17536.798     -1036.5819      1192.9678      2369.0695      16256.042      222.91103      69.446079      0.67365337     52601.361      84.199549    
     21000   597.74987      17371.202     -1042.1604      1199.7763      2394.8606      16062.776      235.44362      57.579624      0.67570654     52441.529      84.703322    
     21100   592.26966      17425.132     -1065.0032      1193.1962      2455.8343      16064.206      238.61593      76.043601      0.67878627     52203.596      85.083928    
     21200   591.75425      17528.459     -1035.3191      1200.4545      2303.642       16246.666      277.3576       71.803022      0.68263571     51909.215      85.465512    
     21300   615.33387      17483.361     -1045.9877      1206.8221      2367.719       16160.526      273.67425      55.818184      0.68665528     51605.347      85.851176    
     21400   597.26897      17601.349     -1077.0905      1196.4764      2412.4913      16259.881      280.43971      67.925268      0.691299       51258.694      86.249165    
     21500   589.36684      17402.215     -1068.508       1178.1694      2423.1957      16054.325      293.61323      61.473289      0.69636016     50886.145      86.644895    
     21600   600.59132      17294.758     -1105.225       1179.538       2265.803       16158.61       284.14488      53.145305      0.70105877     50545.097      87.039367    
     21700   597.8675       17396.01      -1084.1476      1188.393       2346.9651      16204.335      211.45077      68.79          0.70423295     50317.276      87.431141    
     21800   604.57764      17445.805     -1116.1092      1190.3622      2370.2825      16308.871      180.86728      50.485406      0.70583095     50203.358      87.876009    
     21900   590.03541      17592.619     -1089.1045      1197.22        2443.7281      16244.382      255.38737      80.511164      0.70640983     50162.218      88.34543     
     22000   600.09988      17308.973     -1118.9284      1209.9228      2328.4312      16184.632      178.01494      64.987652      0.70695471     50123.556      88.798145    
     22100   586.09631      17344.657     -1086.8578      1207.852       2269.6961      16246.532      181.59805      64.057951      0.70833343     50025.994      89.204311    
     22200   598.59027      17319.401     -1133.6979      1206.5316      2316.7928      16180.6        231.8561       53.996114      0.71022313     49892.889      89.61597     
     22300   591.68504      17472.714     -1105.7159      1218.6254      2474.0338      16115.027      251.31069      55.064381      0.71220392     49754.127      90.053503    
     22400   598.97851      17455.555     -1114.6442      1201.2103      2345.4754      16287.912      186.77384      84.737947      0.71360235     49656.625      90.493495    
     22500   586.12671      17570.76      -1128.4521      1205.828       2495.8786      16132.334      333.70059      70.430083      0.71450613     49593.814      90.939855    
     22600   609.70396      17339.011     -1131.1415      1220.5677      2436.909       16206.93       78.610342      66.600795      0.71542655     49530.01       91.393291    
     22700   603.00596      17348.945     -1103.3125      1214.5456      2334.4809      16113.422      253.81666      75.447557      0.71590545     49496.877      91.814259    
     22800   579.8044       17436.928     -1100.6304      1212.7848      2350.044       16175.451      255.34168      84.058072      0.71677807     49436.619      92.229719    
     22900   592.07664      17313.862     -1160.3963      1221.4224      2339.6148      16205.478      203.60803      42.010613      0.71862788     49309.365      92.675531    
     23000   594.41239      17445.762     -1095.0777      1216.3854      2360.0719      16170.397      248.34731      80.747995      0.72152443     49111.413      93.115289    
     23100   609.67231      17409.955     -1132.7942      1204.9098      2350.3611      16314.239      145.44087      61.301307      0.72385833     48953.065      93.561528    
     23200   601.70304      17434.936     -1108.5265      1196.4199      2361.0528      16239.981      210.75008      69.797149      0.72574535     48825.782      93.969635    
     23300   595.57103      17353.555     -1167.0006      1198.1009      2334.3993      16154.643      291.54556      80.402469      0.72724797     48724.899      94.384044    
     23400   583.29293      17407.044     -1128.0365      1196.1596      2417.0539      16284.382      111.33159      66.149513      0.72914071     48598.417      94.804461    
     23500   601.26782      17270.125     -1196.1706      1206.3782      2358.8456      16187.723      184.04229      69.660933      0.73065159     48497.923      95.20629     
     23600   595.05504      17400.76      -1169.7084      1214.6376      2322.9844      16130.801      384.55886      57.068432      0.73331632     48321.691      95.623021    
     23700   610.17334      17359.097     -1165.8631      1209.7469      2301.7029      16139.783      337.06485      70.590853      0.73494463     48214.631      96.062911    
     23800   602.84161      17503.273     -1207.851       1208.7839      2364.2958      16277.757      328.83243      67.792949      0.73673089     48097.731      96.500436    
     23900   594.34842      17548.838     -1134.0474      1195.9152      2383.6445      16270.059      283.95001      84.45776       0.73940711     47923.645      96.926548    
     24000   598.6716       17329.396     -1169.6457      1210.5562      2418.0128      16008.021      308.30335      89.315277      0.74115598     47810.562      97.370326    
     24100   589.68309      17314.344     -1183.4683      1209.673       2265.8017      16242.165      240.23624      79.454648      0.74310316     47685.282      97.854268    
     24200   589.68785      17335.903     -1136.2013      1202.7814      2278.3795      16148.56       318.97335      60.988619      0.74495369     47566.828      98.335161    
     24300   589.09552      17519.323     -1196.34        1213.1088      2439.8337      16236.756      268.47531      95.497943      0.74597309     47501.826      98.917244    
     24400   615.86341      17352.578     -1170.5983      1209.5547      2363.8306      16152.498      251.53723      84.913566      0.74696563     47438.708      99.400344    
     24500   607.29853      17348.378     -1173.0554      1207.0111      2334.7158      16197.235      250.20871      72.720722      0.74711279     47429.363      99.909418    
     24600   601.3539       17332.946     -1205.4185      1210.4159      2304.0234      16127.784      374.17667      62.03432       0.74613041     47491.811      100.40883    
     24700   594.35758      17327.261     -1155.9823      1201.8315      2340.1152      16093.018      304.86784      85.672152      0.74518462     47552.087      100.89413    
     24800   598.99305      17211.203     -1176.9392      1207.8349      2270.2309      16107.438      263.92794      78.183717      0.74464469     47586.567      101.36799    
     24900   580.46568      17306.948     -1165.5719      1206.313       2317.093       16210.032      206.53433      72.029775      0.74479234     47577.133      101.78798    
     25000   590.63321      17268.042     -1121.4029      1199.3647      2271.5259      16074.718      304.56143      75.418878      0.74343143     47664.227      102.18013    
     25100   593.31185      17440.226     -1163.1655      1182.3992      2400.9044      16176.165      292.51807      85.126755      0.74204857     47753.052      102.60813    
     25200   607.9918       17358.197     -1179.386       1192.5168      2289.5268      16100.352      400.37221      90.08482       0.74078361     47834.595      103.08141    
     25300   588.79195      17443.623     -1166.6129      1209.7985      2377.2171      16218.621      263.77796      75.919457      0.7404844      47853.924      103.46935    
     25400   591.78939      17279.933     -1195.1766      1203.6854      2270.162       16085.621      380.61801      72.98294       0.74076172     47836.008      103.86715    
     25500   578.75972      17317.173     -1197.1668      1203.8019      2263.5245      16124.531      366.80179      93.589054      0.74138329     47795.904      104.2691     
     25600   601.72659      17284.004     -1167.2935      1208.836       2288.2418      16037.18       390.9752       63.063101      0.74332648     47670.956      104.71597    
     25700   603.17397      17416.304     -1177.2659      1217.2973      2396.5917      16148.073      293.63399      77.323508      0.74630923     47480.431      105.18159    
     25800   588.93172      17522.44      -1187.6888      1219.0185      2471.7212      16091.457      399.13928      67.929657      0.74948738     47279.094      105.62452    
     25900   597.62934      17299.737     -1204.7076      1202.6713      2360.1583      16086.174      339.08584      59.220246      0.75156501     47148.395      106.02327    
     26000   579.6401       17353.345     -1192.234       1220.8642      2374.2888      16214.526      195.26347      84.026194      0.75393181     47000.384      106.42379    
     26100   592.59163      17266.28      -1184.8541      1229.2989      2296.177       16154.602      234.49789      79.089288      0.75679956     46822.284      106.81922    
     26200   595.11926      17329.959     -1162.3935      1207.8973      2405.5813      16155.801      192.59271      72.913157      0.76065008     46585.263      107.23422    
     26300   590.93807      17366.18      -1179.781       1209.0552      2331.3917      16269.965      195.79656      81.847959      0.76429754     46362.944      107.64692    
     26400   602.16932      17255.726     -1185.0051      1204.432       2283.1906      16215.654      205.40395      74.092565      0.76824379     46124.791      108.06937    
     26500   603.66748      17223.824     -1214.7093      1193.7817      2322.4079      16114.058      277.89599      71.675848      0.77131671     45941.03       108.46476    
     26600   596.52036      17231.602     -1233.4066      1197.5325      2361.7416      16090.109      285.90255      72.935606      0.77419165     45770.429      108.86203    
     26700   591.79214      17106.879     -1219.8776      1207.5215      2312.4992      16012.269      273.89366      62.385903      0.77532218     45703.689      109.26697    
     26800   583.92052      17170.562     -1226.5081      1195.1399      2367.1644      16085.87       229.88478      60.082839      0.77591756     45668.62       109.66699    
     26900   594.00505      17258.306     -1211.2088      1188.0832      2270.8127      16202.776      285.46989      61.452865      0.77543046     45697.308      110.06489    
     27000   609.61331      17201.688     -1226.2251      1197.6547      2281.8387      16129.749      288.5557       67.652121      0.77281691     45851.849      110.4656     
     27100   596.84695      17324.512     -1208.5308      1204.3694      2388.1167      16174.918      236.89414      67.32368       0.76754045     46167.058      110.86167    
     27200   604.14774      17178.625     -1202.5785      1194.7257      2219.9019      16120.429      311.59097      71.969572      0.76031405     46605.852      111.26431    
     27300   583.71605      17234.608     -1186.8812      1208.6106      2320.0762      16137.771      223.76004      70.529403      0.75364433     47018.312      111.65775    
     27400   587.09968      17156.423     -1156.7577      1197.784       2201.4842      16152.483      236.72499      63.536822      0.74853905     47338.992      112.05461    
     27500   608.67392      17453.994     -1193.634       1207.8302      2504.0908      16223.403      189.50306      62.195296      0.74500914     47563.288      112.44794    
     27600   600.44699      17521.095     -1163.141       1205.188       2320.391       16433.976      204.58258      61.175963      0.74279271     47705.212      112.86272    
     27700   609.18746      17297.595     -1211.9477      1207.7579      2348.4146      16182.103      248.43225      63.319369      0.74139934     47794.869      113.2586     
     27800   594.451        17353.618     -1166.0841      1204.1201      2288.4057      16208.653      291.00944      69.599838      0.74177464     47770.687      113.65687    
     27900   602.48492      17494.509     -1186.7262      1211.446       2301.1306      16409.621      219.47865      79.791671      0.74361932     47652.183      114.05672    
     28000   604.08689      17370.483     -1171.6823      1211.838       2348.7661      16078.836      397.84942      46.010325      0.74629672     47481.227      114.45368    
     28100   588.31479      17421.421     -1171.1521      1205.3225      2477.0198      16053.123      318.53428      76.815364      0.74839498     47348.105      114.84066    
     28200   593.85183      17350.72      -1195.7057      1211.6198      2362.2541      16220.087      214.52429      75.153012      0.74906402     47305.815      115.24644    
     28300   607.34246      17217.168     -1200.096       1195.6767      2344.433       16056.486      288.10887      72.446613      0.7506267      47207.332      115.64813    
     28400   591.50717      17316.092     -1146.2403      1174.3023      2326.156       16137.919      288.22055      78.917726      0.75124438     47168.518      116.04706    
     28500   589.62672      17250.583     -1193.9252      1195.6774      2434.7722      16090.389      222.96698      41.492043      0.75049977     47215.316      116.45318    
     28600   595.60618      17156.587     -1144.1874      1203.0757      2324.8299      16021.838      234.61257      55.058964      0.7498258      47257.755      116.84526    
     28700   595.56636      17317.489     -1176.3566      1203.2629      2325.6353      16204.475      216.0098       86.525688      0.7480929      47367.224      117.23685    
     28800   612.13431      17275.812     -1188.8905      1221.4938      2348.2654      16092.577      281.72136      61.161059      0.74636596     47476.822      117.63715    
     28900   594.92833      17408.159     -1171.5032      1203.3301      2405.705       16202.268      243.76193      64.67294       0.74613503     47491.517      118.03583    
     29000   588.32038      17364.396     -1183.7491      1204.3249      2399.6262      16161.32       246.54869      74.815433      0.74493964     47567.725      118.43218    
     29100   585.33892      17196.37      -1189.2289      1204.3531      2355.4542      16086.149      219.57994      62.882267      0.74311591     47684.464      118.832      
     29200   583.10893      17229.903     -1224.6085      1218.1283      2205.3917      16204.696      295.2888       73.062067      0.74127374     47802.967      119.22061    
     29300   596.70688      17244.264     -1216.5398      1204.4799      2312.6122      15991.628      421.82468      71.233029      0.74070762     47839.503      119.61552    
     29400   591.96254      17374.418     -1186.6828      1207.7274      2374.8946      16155.057      290.1143       76.006984      0.73972374     47903.132      120.02372    
     29500   596.02162      17421.658     -1180.2431      1200.8053      2420.7041      16180.306      291.61377      48.352558      0.73854309     47979.711      120.42733    
     29600   607.33181      17334.245     -1168.0487      1199.3391      2275.6648      16175.733      310.45455      81.162679      0.73681751     48092.076      120.82808    
     29700   594.27563      17384.628     -1119.7213      1181.8336      2382.6428      16234.971      175.39305      67.705205      0.73465496     48233.642      121.22851    
     29800   602.4053       17166.927     -1158.7146      1192.7927      2301.6017      16142.666      161.36737      63.960492      0.7322178      48394.186      121.63569    
     29900   579.87511      17326.966     -1159.0277      1184.811       2316.6854      16187.14       276.64355      59.721439      0.7306272      48499.541      122.03214    
     30000   597.20415      17371.702     -1160.4008      1208.7047      2307.3633      16201.657      294.94003      59.739689      0.72913366     48598.887      122.43373    
     30100   599.66434      17460.403     -1118.4261      1222.9955      2288.4648      16209.659      326.48174      74.053634      0.72836491     48650.18       122.83328    
     30200   608.28588      17340.794     -1134.4759      1210.5931      2311.1101      16177.852      239.50849      79.940768      0.7266556      48764.62       123.23665    
     30300   603.86665      17266.8       -1132.841       1200.2275      2341.8569      16187.035      149.74842      65.683418      0.72566664     48831.078      123.62748    
     30400   590.63937      17268.983     -1166.2236      1178.8282      2263.5983      16165.163      303.64947      69.839559      0.72583352     48819.851      124.02767    
     30500   585.87545      17351.181     -1125.2093      1187.6555      2334.0297      16202.078      238.1872       57.72562       0.72669214     48762.168      124.42387    
     30600   603.99075      17444.112     -1142.0037      1202.6523      2336.6245      16241.64       264.85306      82.320387      0.72654596     48771.978      124.83118    
     30700   598.41186      17489.813     -1166.3796      1214.389       2392.8836      16237.784      307.77921      45.057614      0.7262004      48795.187      125.23398    
     30800   601.4472       17310.606     -1200.0485      1210.0819      2269.4653      16263.707      236.90608      70.807928      0.72461095     48902.22       125.6373     
     30900   586.32072      17357.314     -1172.3743      1213.4677      2332.3237      16148.985      333.63163      43.068384      0.72430465     48922.9        126.03212    
     31000   595.56127      17279.18      -1167.3665      1207.9138      2247.9153      16197.806      254.4922       80.059934      0.72399649     48943.723      126.42677    
     31100   599.74655      17407.451     -1156.3055      1190.2485      2408.3924      16217.39       219.04936      71.64047       0.72314574     49001.304      126.81549    
     31200   620.07507      17375.475     -1150.6633      1193.2457      2380.3527      16176.625      244.08094      74.877532      0.72100536     49146.769      127.20351    
     31300   604.66925      17445.942     -1134.6976      1203.6134      2383.3587      16233.509      238.08664      63.985014      0.7182763      49333.5        127.58673    
     31400   592.64849      17451.681     -1173.1167      1221.513       2385.9473      16302.815      184.67344      69.700758      0.71554364     49521.905      127.97599    
     31500   600.3496       17293.595     -1128.0069      1200.4644      2389.6363      16127.657      168.69103      74.169883      0.71387442     49637.7        128.36903    
     31600   593.18261      17300.512     -1110.1767      1197.4258      2296.9867      16185.945      213.93146      54.25273       0.71373039     49647.716      128.7893     
     31700   599.60216      17349.294     -1111.849       1200.7581      2309.7922      16150.284      270.21779      65.171836      0.71341869     49669.408      129.19318    
     31800   605.15937      17501.848     -1135.9627      1209.4641      2378.2912      16125.039      406.15217      56.042361      0.7121925      49754.924      129.59466    
     31900   612.74274      17407.288     -1121.091       1209.3764      2269.2204      16288.748      233.99402      65.826801      0.7103384      49884.793      129.99702    
     32000   604.13796      17326.832     -1134.0724      1219.5363      2396.8146      16041.625      278.4525       61.144436      0.70766051     50073.564      130.42037    
     32100   594.48667      17350.208     -1109.4001      1216.2496      2408.3072      16042.958      261.80741      65.466378      0.70540375     50233.762      130.80567    
     32200   593.15832      17405.578     -1099.1357      1222.9645      2330.1181      16219.889      194.14231      71.795922      0.70280807     50419.291      131.2034     
     32300   598.96052      17421.76      -1126.1362      1213.1452      2431.3481      16173.017      201.83166      64.667855      0.70137925     50522.002      131.58321    
     32400   592.71706      17515.324     -1111.8028      1217.625       2395.3314      16192.731      291.41127      65.745873      0.7006066      50577.719      131.96297    
     32500   598.13804      17450.865     -1133.8231      1218.4287      2326.5335      16156.523      335.81246      84.565924      0.70005839     50617.326      132.37351    
     32600   595.22386      17446.868     -1109.6218      1211.9401      2408.5517      16195.381      218.3937       60.690498      0.7005308      50583.192      132.76459    
     32700   598.77282      17372.129     -1087.8609      1220.5739      2347.2162      16145.653      218.16509      68.430986      0.70119306     50535.418      133.14994    
     32800   593.78238      17325.917     -1124.6231      1222.8868      2334.0821      16164.066      206.95614      60.098774      0.70232618     50453.884      133.52704    
     32900   585.67737      17372.12      -1134.4119      1219.0185      2329.2038      16172.822      247.05722      75.554174      0.70376938     50350.42       133.90493    
     33000   598.77005      17436.552     -1119.3005      1225.7815      2430.3666      16111.741      256.14082      71.291123      0.70585855     50201.395      134.31296    
     33100   607.44169      17441.621     -1090.0648      1200.0875      2441.6329      16192.095      184.83846      55.171767      0.70860142     50007.075      134.72041    
     33200   597.05344      17417.931     -1118.9183      1191.9934      2410.0707      16164.806      232.95326      80.139986      0.71112522     49829.599      135.10834    
     33300   587.41753      17398.611     -1101.1187      1197.9617      2344.9852      16150.143      273.38361      77.310511      0.71286747     49707.814      135.5152     
     33400   594.43634      17329.666     -1138.444       1207.3567      2293.0859      16103.667      356.93803      50.121071      0.71461466     49586.282      135.91809    
     33500   591.89764      17398.317     -1169.0988      1193.8632      2313.9896      16184.674      346.34554      70.837108      0.71628229     49470.837      136.33111    
     33600   612.29487      17279.638     -1139.5682      1189.1903      2295.3283      16055.661      347.7448       69.728298      0.71824589     49335.589      136.74382    
     33700   600.44632      17433.552     -1140.3241      1186.2147      2361.1284      16281.768      209.71524      76.394613      0.71903149     49281.686      137.17009    
     33800   615.51969      17195.905     -1146.14        1186.0964      2337.9498      16053.334      239.24311      67.051233      0.71982532     49227.338      137.57576    
     33900   598.49564      17192.625     -1171.8594      1197.1518      2318.9163      16076.021      244.14268      68.074579      0.71961317     49241.85       137.96745    
     34000   597.17801      17195.926     -1134.8306      1185.9682      2236.0869      16053.029      323.61313      71.400596      0.71905098     49280.35       138.36959    
     34100   603.27667      17288.459     -1123.2848      1180.1689      2251.4025      16159.168      263.86113      96.492935      0.71776499     49368.644      138.77915    
     34200   609.81023      17320.455     -1143.2923      1188.0384      2301.1757      16198.567      247.8011       68.474108      0.71623469     49474.124      139.17338    
     34300   599.46674      17354.229     -1127.8005      1192.6992      2444.7398      16077.066      231.45356      74.349645      0.71391716     49634.728      139.57907    
     34400   593.51101      17320.328     -1165.7498      1195.4476      2331.1317      16222.198      208.91739      65.939297      0.71136781     49812.605      139.98163    
     34500   595.59534      17294.522     -1139.6031      1200.1772      2274.9913      16093.579      322.80987      78.743138      0.70838892     50022.076      140.3921     
     34600   596.73952      17329.681     -1158.7234      1205.3601      2357.0223      16192.311      204.26744      65.713918      0.70549409     50227.33       140.79739    
     34700   600.96184      17354.113     -1116.2335      1193.1648      2338.153       16165.173      233.30879      79.471822      0.7038028      50348.03       141.1988     
     34800   603.73022      17385.56      -1101.0328      1194.2851      2369.7237      16096.966      290.79251      73.317456      0.70168307     50500.127      141.58302    
     34900   591.21903      17455.186     -1102.1964      1201.2012      2375.7615      16194.498      258.93099      66.754717      0.70018837     50607.93       141.99007    
     35000   591.81401      17298.238     -1128.3036      1206.1999      2272.1599      16159.911      262.37627      67.141966      0.69854575     50726.934      142.40549    
     35100   591.30985      17278.512     -1086.8794      1224.1506      2383.8638      16066.352      154.86916      78.777329      0.69685787     50849.801      142.80104    
     35200   588.555        17489.363     -1089.8347      1214.5777      2462.4291      16156.77       211.18019      76.845705      0.6942786      51038.71       143.324      
     35300   602.05368      17442.684     -1100.849       1219.2514      2327.7566      16163.028      279.64541      94.799887      0.69159337     51236.876      143.79465    
     35400   596.27537      17497.006     -1090.1733      1218.7538      2423.2821      16147.304      260.83893      74.906599      0.68891655     51435.96       144.24649    
     35500   598.72223      17444.425     -1064.6678      1214.8644      2323.1394      16051.44       360.18364      93.677989      0.68599681     51654.882      144.71146    
     35600   584.63024      17441.855     -1104.777       1229.7787      2305.8254      16165.448      298.1167       82.610296      0.68241268     51926.18       145.12827    
     35700   581.93315      17374.146     -1083.8691      1223.0797      2277.6042      16163.082      248.36163      82.648511      0.67980131     52125.649      145.58049    
     35800   597.92558      17392.194     -1065.5135      1222.3323      2323.1875      16090.769      264.95488      93.6525        0.67753638     52299.899      145.95519    
     35900   597.17759      17530.305     -1032.5901      1212.7159      2367.3308      16194.324      241.8092       82.16647       0.67557643     52451.628      146.49862    
     36000   605.81664      17441.17      -1050.6677      1220.5498      2297.5643      16193.473      250.40013      65.878452      0.67368925     52598.56       146.93878    
     36100   594.6202       17464.07      -1083.3142      1217.2958      2267.0096      16141.542      386.94285      71.492066      0.67196681     52733.385      147.47251    
     36200   579.5348       17488.418     -1061.0474      1213.988       2377.3         16145.091      273.82328      78.307944      0.67191825     52737.196      147.97296    
     36300   579.02551      17399.626     -1038.0327      1218.9553      2249.3293      16157.771      274.38703      78.256657      0.67393797     52579.148      148.74244    
     36400   596.56333      17385.312     -1070.4849      1212.7742      2325.4415      16127.643      269.67272      58.133809      0.67677918     52358.414      149.37818    
     36500   600.99613      17501.159     -1090.5443      1208.4869      2349.2157      16232.927      251.96095      85.105618      0.67983053     52123.408      150.53009    
     36600   608.15166      17433.535     -1073.1585      1200.5744      2274.5895      16300.59       190.60949      76.520122      0.68362339     51834.218      150.9324     
     36700   596.82239      17399.832     -1092.0233      1221.0254      2365.2277      16103.25       266.57352      71.587992      0.68686672     51589.462      151.32087    
     36800   590.50357      17346.284     -1106.0711      1211.1212      2315.437       16198.356      195.0664       69.465375      0.68974041     51374.522      151.71004    
     36900   602.23992      17223.742     -1088.9712      1205.8805      2219.1467      16117.473      241.11406      65.820286      0.6924691      51172.08       152.10136    
     37000   596.17692      17328.317     -1099.8893      1202.8718      2304.9843      16104.314      302.24914      49.790233      0.69523865     50968.231      152.57535    
     37100   600.66616      17315.298     -1110.4394      1214.5154      2248.8234      16038.477      396.63557      62.654543      0.69625015     50894.185      153.00997    
     37200   592.55366      17417.112     -1086.6198      1221.5499      2367.3579      16106.424      268.09592      77.027637      0.69721434     50823.803      153.4641     
     37300   604.72298      17399.422     -1128.3091      1218.0532      2350.67        16196.278      216.13943      85.83981       0.69679656     50854.276      153.8619     
     37400   617.79544      17391.402     -1102.4862      1204.8008      2345.2452      16073.106      318.05606      94.387939      0.695683       50935.676      154.36481    
     37500   596.44964      17510.88      -1122.5138      1217.6361      2331.9452      16312.408      239.93254      72.455946      0.69409888     51051.925      154.77842    
     37600   598.85358      17296.183     -1094.9259      1220.9968      2268.3712      16056.184      310.84601      74.740906      0.69374296     51078.117      155.17833    
     37700   596.04027      17318.125     -1111.2297      1199.4205      2290.1803      16124.776      290.65707      63.679544      0.69376231     51076.692      155.61591    
     37800   597.72916      17399.935     -1091.6136      1194.3394      2324.9938      16113.002      320.31182      80.504909      0.69393985     51063.625      156.13108    
     37900   599.18763      17492.122     -1114.1125      1204.3714      2371.3653      16157.863      341.08946      74.488374      0.69532583     50961.84       157.05027    
     38000   617.76022      17421.809     -1075.222       1221.403       2396.5234      16150.761      201.85788      65.135273      0.69768104     50789.805      157.43489    
     38100   597.36179      17561.767     -1078.5329      1228.6196      2488.5166      16100.169      273.16464      88.02773       0.6998253      50634.186      157.8471     
     38200   599.30206      17346.384     -1098.8228      1230.2885      2311.0005      16135.305      236.07316      71.807283      0.7015695      50508.302      158.26927    
     38300   590.44255      17376.11      -1095.6016      1225.5991      2408.075       16036.904      252.49114      87.934263      0.70339799     50377.005      158.67213    
     38400   600.9841       17339.497     -1095.048       1215.212       2256.1275      16167.507      273.10881      62.088367      0.70575305     50208.9        159.07561    
     38500   595.23801      17544.694     -1067.4924      1212.4106      2446.9834      16226.197      208.80655      57.198208      0.70857029     50009.272      159.48009    
     38600   627.73829      17347.682     -1149.5682      1206.8268      2247.5356      16274.701      241.66811      66.851681      0.71049717     49873.645      159.86496    
     38700   607.28028      17360.705     -1153.945       1214.0557      2246.3884      16269.572      266.80267      61.539074      0.71321564     49683.549      160.26053    
     38800   585.37916      17399.668     -1132.514       1213.7777      2352.7491      16051.056      385.72709      67.96234       0.71588999     49497.946      160.68139    
     38900   578.86115      17473.467     -1097.5644      1207.8712      2380.9425      16189.753      250.69177      80.066812      0.71832062     49330.457      161.28436    
     39000   602.43173      17378.94      -1115.3609      1201.9482      2378.4861      16103.413      274.17548      75.982013      0.71950861     49249.006      161.67703    
     39100   602.54077      17477.837     -1132.9055      1210.0443      2324.7147      16240.02       297.8143       77.831851      0.72009882     49208.641      162.04406    
     39200   603.1477       17401.975     -1102.5729      1204.8797      2397.0854      16104.023      257.46936      80.424541      0.72069935     49167.637      162.47207    
     39300   589.07735      17304.005     -1110.9658      1204.4801      2249.024       16121.305      303.39366      77.171909      0.72047834     49182.719      162.89441    
     39400   587.3588       17316.03      -1138.784       1206.2832      2310.3768      16159.404      258.38219      61.672552      0.72057292     49176.264      163.28777    
     39500   597.7934       17313.156     -1152.0396      1218.9717      2365.0387      16029.929      329.34503      63.457834      0.72155214     49109.526      163.76005    
     39600   599.85015      17432.415     -1102.6583      1208.6413      2429.4647      16134.525      226.2959       77.881159      0.72327095     48992.821      164.17805    
     39700   602.11494      17453.621     -1098.6848      1207.6845      2362.2725      16218.376      217.04464      88.934248      0.72455049     48906.3        164.5967     
     39800   599.51104      17360.088     -1122.1665      1186.7746      2352.7942      16132.405      285.12388      67.93512       0.7261012      48801.853      165.01378    
     39900   590.6133       17320.35      -1143.7095      1191.7431      2353.8767      16212.937      171.1728       76.534972      0.72663907     48765.729      165.583      
     40000   573.26342      17473.491     -1143.3547      1189.7445      2390.1694      16230.587      280.0111       68.759985      0.72786463     48683.619      166.03949    
     40100   586.18207      17425.671     -1150.7384      1197.8923      2401.1427      16218.406      221.84545      79.013787      0.72973388     48558.913      166.4971     
     40200   606.98582      17336.05      -1134.2884      1198.2308      2356.0059      16078.374      308.90488      70.477269      0.7320153      48407.573      167.38164    
     40300   602.60628      17404.636     -1132.2148      1197.4416      2355.9706      16184.717      253.67782      85.314958      0.73404543     48273.693      168.76213    
     40400   610.85815      17220.374     -1176.0796      1204.6111      2360.537       16082.083      212.69784      75.751232      0.73617048     48134.345      169.16685    
     40500   581.58451      17310.506     -1115.5382      1222.8696      2386.1159      16084.866      211.84234      57.758361      0.73986619     47893.909      169.60618    
     40600   593.19301      17241.678     -1171.5881      1208.5812      2244.6124      16189.581      229.52421      81.609978      0.74337916     47667.578      170.00819    
     40700   596.61957      17315.91      -1161.6469      1204.4816      2349.5974      16116.913      270.017        74.368779      0.74771273     47391.307      170.43128    
     40800   599.78759      17318.547     -1140.2288      1203.6991      2338.7411      16108.521      252.93149      91.632631      0.75097795     47185.252      170.90648    
     40900   601.11882      17260.769     -1188.2455      1205.55        2377.612       16116.704      225.48472      62.576189      0.75270352     47077.08       171.35138    
     41000   591.46914      17209.643     -1191.1485      1205.1742      2339.4168      16076.427      236.61061      83.663478      0.75387586     47003.872      171.84265    
     41100   563.88461      17190.536     -1169.7778      1209.483       2278.1126      16055.36       280.61438      79.368888      0.75439942     46971.25       172.25158    
[...]
     76800   595.71917      17377.691     -1177.0702      1206.7572      2443.0661      16084.164      292.49406      69.495363      0.75069739     47202.887      322.75376    
     76900   596.62867      17289.753     -1149.5819      1199.9242      2358.7654      16126.893      238.20167      58.074413      0.74915508     47300.065      323.15729    
     77000   585.2445       17297.991     -1177.0821      1207.8744      2310.0743      16124.651      305.51942      69.197176      0.74701863     47435.341      323.56469    
     77100   588.1003       17191.545     -1189.5874      1211.0657      2342.1329      16062.285      249.49246      57.042935      0.7450661      47559.652      323.95928    
     77200   580.43347      17327.236     -1182.8722      1205.4406      2405.4666      16061.104      315.35702      62.278715      0.74387491     47635.81       324.35754    
     77300   599.24194      17351.418     -1190.2403      1210.9384      2485.3243      16173.315      146.35348      66.731896      0.7426339      47715.414      324.75284    
     77400   595.60702      17391.948     -1152.493       1219.6486      2395.7257      16118.81       304.09506      47.528066      0.74064427     47843.595      325.14951    
     77500   584.26785      17395.805     -1186.651       1237.5718      2577.5888      16108.232      136.92277      62.582284      0.73848876     47983.241      325.55925    
     77600   589.79663      17213.685     -1199.9777      1223.1948      2339.0159      16031.316      304.86059      56.230179      0.73672973     48097.807      325.95061    
     77700   590.53301      17119.128     -1177.0999      1220.415       2261.3636      16119.551      187.19128      48.609831      0.73606781     48141.06       326.33995    
     77800   583.58762      17268.9       -1165.9022      1224.4323      2320.2028      16086.946      286.8924       58.285649      0.73613083     48136.938      326.72735    
     77900   598.49936      17325.616     -1198.9857      1213.9904      2407.1457      16106.575      284.59023      53.182211      0.73718104     48068.361      327.11952    
     78000   597.01515      17396.323     -1154.713       1198.1369      2412.9535      16143.878      275.64036      62.93933       0.73981991     47896.905      327.51255    
     78100   597.77402      17330.371     -1174.2604      1207.8393      2478.5547      16046.6        243.76658      71.226846      0.74260063     47717.552      327.89687    
     78200   588.66959      17243.085     -1181.4509      1200.6609      2371.4353      16041.005      290.21552      65.007884      0.74647212     47470.07       328.28204    
     78300   578.38344      17285.267     -1184.7486      1206.7145      2409.1563      16044.156      285.19143      67.421043      0.75044314     47218.879      328.66963    
     78400   590.58165      17248.821     -1216.6809      1202.844       2384.1532      16071.742      290.29817      57.785139      0.75375911     47011.152      329.05428    
     78500   591.52998      17291.093     -1202.9325      1217.7669      2402.1648      16073.523      253.34558      88.356274      0.75666716     46830.477      329.44542    
     78600   598.14255      17247.35      -1199.7332      1200.0109      2385.2127      16035.262      315.08675      54.766571      0.75826466     46731.815      329.83052    
     78700   594.90936      17255.178     -1221.4371      1192.4462      2326.2777      16172.163      280.7674       48.481139      0.75921058     46673.591      330.21686    
     78800   595.37602      17121.531     -1225.9227      1194.2965      2259.5487      16102.97       265.71206      65.971392      0.75979563     46637.652      330.61458    
     78900   586.0179       17081.012     -1202.6267      1194.7794      2335.0227      16060.726      165.74794      67.106275      0.76055744     46590.937      331.00615    
     79000   593.33473      17183.538     -1212.0071      1193.1221      2367.6956      16010.62       286.78508      77.950958      0.76044531     46597.807      331.39932    
     79100   600.38463      17277.642     -1218.7432      1191.555       2292.4465      16133.605      338.71101      82.391242      0.76020428     46612.581      331.79377    
     79200   590.2319       17353.437     -1219.3669      1199.1706      2477.4488      16040.917      342.12711      54.817559      0.75926578     46670.198      332.17968    
     79300   601.24706      17142.351     -1235.8604      1199.4711      2375.6526      16107.495      175.65542      61.922089      0.75886351     46694.937      332.57794    
     79400   603.59175      17018.076     -1239.1622      1195.9862      2240.6253      16100.227      198.84798      63.633632      0.75910348     46680.176      332.96797    
     79500   587.72663      17168.671     -1211.9889      1183.4364      2379.8906      16008.386      300.54464      53.216574      0.76113771     46555.417      333.36039    
     79600   593.31555      17336.128     -1209.5898      1192.1959      2253.556       16255.672      305.37487      82.796354      0.76372132     46397.925      333.75556    
     79700   598.80599      17361.015     -1214.1994      1199.689       2374.1648      16191.556      274.60699      78.055456      0.76566667     46280.04       334.15173    
     79800   602.21054      17207.405     -1201.4738      1191.9818      2365.3675      16127.06       201.70213      67.104041      0.76754622     46166.71       334.5497     
     79900   592.62512      17179.126     -1221.4415      1191.6612      2301.5992      16152.61       233.03599      64.729772      0.76946894     46051.351      334.93901    
     80000   589.11132      17190.313     -1197.4775      1186.3192      2311.1324      16121.031      262.84118      49.568456      0.77103541     45957.791      335.33241    
     80100   595.79533      17173.037     -1263.5566      1197.3236      2381.0304      16102.544      230.75468      67.430722      0.77146999     45931.902      335.72995    
     80200   589.6967       17358.193     -1192.7955      1210.4644      2376.5783      16209.687      236.50805      59.979571      0.77138913     45936.717      336.24959    
     80300   607.58582      17381.779     -1174.9298      1198.727       2420.3584      16086.077      336.22359      57.863031      0.76933117     46059.598      336.64803    
     80400   611.89851      17247.346     -1245.9779      1206.945       2325.815       16182.806      252.3199       66.894038      0.76524826     46305.344      337.06024    
     80500   588.79913      17332.724     -1186.76        1202.6278      2326.0099      16136.238      310.70634      83.170061      0.76037032     46602.403      337.45583    
     80600   587.76341      17280.73      -1211.8332      1203.3081      2468.6046      16164.399      122.89899      75.613196      0.75512545     46926.089      337.85054    
     80700   576.4738       17343.446     -1177.3177      1211.875       2391.7095      16134.902      265.94544      58.165872      0.75110753     47177.112      338.23604    
     80800   594.20676      17306.474     -1173.5021      1206.9448      2428.6119      16038.185      264.61303      82.78556       0.74737899     47412.47       338.63647    
     80900   598.66274      17423.075     -1178.6126      1219.5179      2456.6435      16192.751      216.4264       54.361909      0.74398969     47628.461      339.02431    
     81000   598.12846      17408.637     -1166.0605      1211.3801      2382.5464      16182.875      264.77581      71.366248      0.74129558     47801.559      339.42074    
     81100   597.28605      17313.844     -1136.4864      1190.0677      2354.1008      16057.993      316.5858       70.601495      0.73735938     48056.735      339.80123    
     81200   604.38092      17187.257     -1163.408       1186.5738      2311.2022      16125.025      214.45886      54.295212      0.73260195     48368.809      340.18422    
     81300   587.57088      17318.146     -1151.8854      1194.2598      2405.7605      16080.51       271.58197      58.203574      0.72871987     48626.483      340.57512    
     81400   583.75068      17386.702     -1122.1734      1184.5913      2519.4186      16194.62       85.047906      65.709414      0.72554867     48839.017      340.95885    
     81500   592.32651      17445.327     -1138.0216      1187.703       2398.0103      16218.553      248.27864      70.563213      0.72270542     49031.158      341.3287     
     81600   600.14623      17515.763     -1096.8649      1201.2092      2366.669       16227.584      272.73261      85.359003      0.72068129     49168.869      341.70964    
     81700   598.93978      17462.673     -1110.3073      1203.4199      2484.8858      16128.795      237.05789      61.701903      0.71911417     49276.02       342.08564    
     81800   584.56449      17344.238     -1146.672       1198.4168      2413.679       16205.836      164.75354      53.64449       0.71878597     49298.519      342.47007    
     81900   580.29562      17369.629     -1108.4312      1192.2209      2380.8382      16201.567      180.6337       65.541752      0.72078168     49162.021      342.84922    
     82000   607.31025      17233.686     -1128.3232      1187.1591      2313.4372      16112.93       238.95568      53.995599      0.72455182     48906.211      343.23717    
     82100   591.44466      17461.424     -1129.2346      1187.3188      2439.6447      16283.069      144.21915      77.746376      0.72916149     48597.032      343.61869    
     82200   602.27227      17347.152     -1153.1346      1191.0484      2359.4709      16268.501      169.71816      55.1174        0.73456519     48239.536      344.00535    
     82300   586.8111       17289.74      -1158.6705      1193.4956      2367.3965      16208.437      147.19051      73.392326      0.74091022     47826.421      344.40727    
     82400   584.01712      17264.016     -1152.0368      1189.7634      2211.9575      16107.977      370.29532      76.981136      0.74716269     47426.196      344.80371    
     82500   586.07101      17345.006     -1189.9096      1212.6232      2302.0132      16226.291      277.42399      57.08104       0.75304097     47055.984      345.2054     
     82600   589.9702       17408.424     -1178.9301      1198.8881      2495.9447      16152.039      205.59375      75.855859      0.75753864     46776.603      345.6224     
     82700   595.13032      17320.84      -1212.9827      1186.1587      2352.6078      16222.554      240.72062      75.16768       0.76009675     46619.176      346.01954    
     82800   589.39879      17276.324     -1212.2271      1192.4767      2363.7509      16199          214.62661      61.854092      0.76140996     46538.772      346.42477    
     82900   591.71846      17173.877     -1199.1884      1203.1887      2263.1902      16114.062      269.99986      62.918668      0.76197553     46504.229      346.84006    
     83000   595.74306      17129.229     -1222.3798      1192.5569      2322.3094      16020.37       282.18193      74.118611      0.76240685     46477.919      347.24234    
     83100   592.34921      17355.624     -1199.2167      1174.5612      2292.0985      16232.725      320.80582      73.841583      0.76177991     46516.17       347.63969    
     83200   599.4163       17425.069     -1181.0395      1178.2638      2368.3798      16212.433      314.7305       71.60475       0.76056511     46590.467      348.04543    
     83300   595.59718      17340.208     -1202.0707      1197.0066      2399.7983      16068.303      359.13754      57.078742      0.75838652     46724.306      348.45337    
     83400   576.32856      17393.288     -1197.323       1199.7524      2313.9331      16153.815      372.2314       86.605911      0.75532325     46913.8        348.86027    
     83500   587.85563      17315.028     -1216.6305      1205.5066      2418.3995      16163.092      214.92183      65.478922      0.75131308     47164.205      349.25112    
     83600   601.99452      17310.802     -1193.0006      1205.5377      2327.7136      16123.21       326.7813       58.394829      0.74865627     47331.58       349.64837    
     83700   619.21543      17316.859     -1175.438       1209.5707      2283.6319      16114.839      345.45548      78.60996       0.74630876     47480.461      350.05064    
     83800   598.98055      17431.774     -1179.8706      1218.3016      2481.1523      16155.271      223.35681      71.579942      0.74451785     47594.673      350.44759    
     83900   584.69842      17467.97      -1185.587       1211.7633      2470.6386      16137.439      290.86157      79.716707      0.74312653     47683.783      350.83936    
     84000   600.98337      17233.344     -1157.3911      1194.7472      2304.4328      16063.212      304.40185      61.569488      0.7424901      47724.655      351.22212    
     84100   591.20964      17267.795     -1174.4989      1199.3988      2371.9854      16025.422      320.86598      59.885073      0.74249083     47724.608      351.62197    
     84200   583.59658      17323.534     -1192.9971      1204.0047      2400.3113      16090.605      293.65489      62.994485      0.74268064     47712.411      352.00418    
     84300   592.63017      17346.679     -1153.2709      1207.8539      2385.6242      16114.734      266.85518      59.546848      0.74444524     47599.316      352.39965    
     84400   607.05281      17325.966     -1158.0453      1211.9418      2425.937       16123.783      192.97714      62.625319      0.74536259     47540.733      352.78722    
     84500   603.20421      17309.644     -1127.4592      1200.0649      2340.8793      16157.238      230.09634      43.952787      0.74589517     47506.788      353.17852    
     84600   593.67475      17207.781     -1215.294       1214.1175      2264.0059      16181.9        236.51553      63.891251      0.74540343     47538.129      353.56979    
     84700   588.97519      17213.734     -1179.4783      1199.3862      2300.5255      16130.427      255.80511      46.591217      0.74538986     47538.994      353.95378    
     84800   592.51134      17236.249     -1181.9873      1199.6366      2330.1522      16204.674      152.70752      68.15474       0.74522825     47549.303      354.34087    
     84900   590.06186      17341.038     -1176.3759      1210.2164      2386.6713      16100.61       296.28159      61.742456      0.74509588     47557.75       354.7261     
     85000   602.14137      17328.412     -1182.5515      1211.353       2400.2633      16182.015      204.55383      52.271512      0.7451959      47551.367      355.11115    
     85100   616.35197      17391.49      -1178.8682      1223.316       2373.4493      16127.892      307.14035      77.280673      0.74621922     47486.158      355.5093     
     85200   598.7692       17445.12      -1157.4514      1217.8366      2322.1634      16166.221      345.97835      87.424578      0.74756911     47400.413      355.89862    
     85300   596.01161      17306.051     -1165.6239      1211.8703      2327.5411      16146.278      260.61168      63.520663      0.74887816     47317.556      356.28584    
     85400   591.3174       17281.902     -1200.5559      1205.6074      2409.7646      16058.773      296.73439      50.761511      0.75029935     47227.928      356.67966    
     85500   587.90243      17249.022     -1186.7161      1206.3704      2307.193       16118.712      281.29657      64.760841      0.75273045     47075.396      357.06881    
     85600   589.4501       17184.071     -1208.5452      1201.869       2339.3694      16144.443      188.29553      59.958577      0.75475278     46949.259      357.46624    
     85700   582.18697      17160.198     -1164.0281      1203.474       2399.42        15990.106      223.10431      50.17895       0.75714902     46800.674      357.85448    
     85800   580.53972      17196.001     -1230.0114      1202.5943      2345.9968      16073.087      282.94885      64.116073      0.75834814     46726.671      358.24848    
     85900   601.34274      17192.864     -1193.0832      1202.358       2361.0966      16063.311      233.16637      68.986443      0.76019324     46613.259      358.64293    
     86000   608.5157       17186.643     -1205.2398      1187.1887      2331.2818      16038.096      292.77752      87.375294      0.76082442     46574.588      359.04852    
     86100   595.19225      17232.209     -1198.1422      1186.8838      2408.5998      16098.854      196.35169      82.750208      0.76057901     46589.616      359.4845     
     86200   585.71483      17175.627     -1153.4116      1182.7426      2258.4087      16065.887      290.96337      76.678329      0.75946452     46657.985      359.89539    
     86300   580.93162      17208.336     -1192.4304      1199.309       2336.8595      15920.865      408.25414      79.945221      0.75692555     46814.49       360.31986    
     86400   595.27893      17220.41      -1202.9187      1202.1348      2350.6099      16034.442      327.18886      53.405185      0.75394666     46999.457      360.72934    
     86500   602.85174      17253.823     -1183.5929      1202.7058      2344.2993      16014.009      336.33669      83.508776      0.75117248     47173.033      361.14092    
     86600   597.80599      17238.061     -1222.2507      1215.6683      2329.4757      16086.479      304.34003      66.846565      0.74790785     47378.944      361.55123    
     86700   582.2762       17277.959     -1163.9312      1202.6074      2462.4255      16035.954      222.51848      59.988069      0.74581171     47512.104      361.94907    
     86800   589.64312      17233.938     -1209.8405      1215.4502      2337.3356      16078.226      276.1897       75.650558      0.74244437     47727.595      362.34989    
     86900   598.8632       17273.386     -1207.6586      1216.5866      2347.8941      16143.525      247.97006      67.395515      0.73948315     47918.717      362.75017    
     87000   594.7283       17383.85      -1171.4745      1213.3801      2343.0306      16165.715      298.05813      75.752344      0.73755342     48044.092      363.15671    
     87100   601.4819       17354.262     -1170.415       1218.5482      2382.1403      16185.338      204.58815      73.752765      0.73614862     48135.775      363.55687    
     87200   585.23863      17401.098     -1148.959       1205.9455      2387.4912      16182.504      239.35211      73.347396      0.73560964     48171.043      363.96101    
     87300   585.27961      17276.977     -1146.7318      1203.6395      2263.6361      16087.942      335.41868      73.113806      0.73507936     48205.794      364.36322    
     87400   577.03514      17358.87      -1143.7378      1214.2186      2297.0494      16165.094      282.49734      80.208553      0.73478688     48224.982      364.7671     
     87500   580.29824      17514.662     -1130.3059      1203.0069      2471.0576      16272.073      170.57467      67.304364      0.73509098     48205.032      365.15899    
     87600   602.42138      17374.947     -1157.84        1200.4653      2337.6667      16248.134      209.73618      76.605745      0.73554067     48175.561      365.56941    
     87700   596.56785      17371.578     -1141.6582      1195.8612      2355.5021      16138.22       295.62484      67.03385       0.73696554     48082.416      365.97411    
     87800   599.53982      17261.499     -1180.9662      1212.0395      2304.1643      16159.799      251.51539      54.091014      0.73833455     47993.262      366.37302    
     87900   594.18811      17288.363     -1171.6571      1193.6527      2359.7401      16131.58       242.18511      74.665425      0.7398322      47896.109      366.77999    
