LAMMPS (22 Dec 2022)
WARNING: Using I/O redirection is unreliable with parallel runs. Better to use the -in switch to read input files. (../lammps.cpp:531)
Reading data file ...
  orthogonal box = (5.3835842 5.3835842 5.3835842) to (37.478536 37.478536 37.478536)
  1 by 1 by 2 MPI processor grid
  reading atoms ...
  2996 atoms
  reading velocities ...
  2996 velocities
  scanning bonds ...
  5 = max bonds/atom
  scanning angles ...
  6 = max angles/atom
  scanning dihedrals ...
  14 = max dihedrals/atom
  scanning impropers ...
  4 = max impropers/atom
  reading bonds ...
  3131 bonds
  reading angles ...
  5396 angles
  reading dihedrals ...
  7142 dihedrals
  reading impropers ...
  2556 impropers
Finding 1-2 1-3 1-4 neighbors ...
  special bond factors lj:    0        0        0       
  special bond factors coul:  0        0        0       
     4 = max # of 1-2 neighbors
     7 = max # of 1-3 neighbors
    15 = max # of 1-4 neighbors
    17 = max # of special neighbors
  special bonds CPU = 0.001 seconds
  read_data CPU = 0.042 seconds
Respa levels:
  1 = bond angle dihedral improper
  2 =
  3 = pair
  4 = kspace
WARNING: One or more respa levels compute no forces (../respa.cpp:237)
PPPM initialization ...
  using 12-bit tables for long-range coulomb (../kspace.cpp:342)
  G vector (1/distance) = 0.19677283
  grid = 8 8 8
  stencil order = 5
  estimated absolute RMS force accuracy = 0.026522975
  estimated relative force accuracy = 7.987315e-05
  using double precision KISS FFT
  3d grid and FFT values/proc = 1521 256
Generated 36 of 36 mixed pair_coeff terms from sixthpower/geometric mixing rule
Neighbor list info ...
  update: every = 1 steps, delay = 0 steps, check = yes
  max neighbors/atom: 2000, page size: 100000
  master list distance cutoff = 12
  ghost atom cutoff = 12
  binsize = 6, bins = 6 6 6
  1 neighbor lists, perpetual/occasional/extra = 1 0 0
  (1) pair lj/class2/coul/long, perpetual
      attributes: half, newton on
      pair build: half/bin/newton
      stencil: half/bin/3d
      bin: standard
Setting up r-RESPA run ...
  Unit style    : real
  Current step  : 0
  Time steps    : 1:0.25 2:0.5 3:1 4:2
  r-RESPA fixes :
WARNING: Inconsistent image flags (../domain.cpp:815)
Per MPI rank memory allocation (min/avg/max) = 19.24 | 19.43 | 19.62 Mbytes
   Step          Temp          PotEng         E_vdwl         E_coul         E_bond        E_angle        E_dihed        E_impro        Density         Volume    
         0   492.84444      15813.738     -1653.4951      1174.0859      1819.6385      15909.291      87.397124      24.43143       1.0718235      33060.56     
       100   497.28211      15773.655     -1626.7418      1173.1728      1784.2341      15829.395      108.97944      54.2713        1.0718235      33060.56     
       200   504.66015      15707.78      -1639.0824      1170.6208      1724.1308      15731.783      227.52605      41.77935       1.0718235      33060.56     
       300   497.06336      15774.332     -1604.5341      1180.3446      1835.7991      15791.588      87.0548        35.97763       1.0718235      33060.56     
       400   496.89381      15777.025     -1659.2858      1174.606       1803.7411      15820.206      148.97274      41.127458      1.0718235      33060.56     
       500   498.32521      15763.903     -1640.9764      1166.0551      1865.7989      15755.373      140.16731      33.089261      1.0718235      33060.56     
       600   498.28336      15764.364     -1603.9603      1178.2397      1930.1169      15676.072      110.79615      25.517902      1.0718235      33060.56     
       700   501.03416      15740.237     -1661.779       1171.8174      1865.8418      15715.41       153.07133      46.772887      1.0718235      33060.56     
       800   499.3188       15755.003     -1622.4024      1174.3434      1823.8057      15785.27       99.833853      47.86286       1.0718235      33060.56     
       900   502.73696      15724.463     -1657.9334      1170.9605      1898.1612      15683.445      133.62272      53.216387      1.0718235      33060.56     
      1000   499.24512      15755.45      -1654.1482      1181.6136      1916.0149      15785.347      49.411802      28.206835      1.0718235      33060.56     
      1100   491.54224      15824.578     -1649.9119      1188.4678      1900.6325      15828.665      59.035256      47.069709      1.0718235      33060.56     
      1200   504.99965      15704.379     -1622.9073      1167.0811      1874.7349      15775.144      21.687328      37.917605      1.0718235      33060.56     
      1300   489.673        15842.016     -1618.9876      1169.7441      1919.8077      15853.382      8.0684558      59.532591      1.0718235      33060.56     
      1400   499.16309      15755.86      -1707.7096      1161.7763      1851.0386      15823.839      125.59674      53.229319      1.0718235      33060.56     
      1500   504.5834       15707.201     -1629.3511      1157.2944      1906.5518      15761.205      37.363587      28.205275      1.0718235      33060.56     
      1600   494.08288      15802.342     -1641.7092      1166.2017      1903.9864      15696.953      190.12305      36.579618      1.0718235      33060.56     
      1700   488.57299      15850.766     -1625.2474      1172.9811      2010.4398      15728.884      66.327338      46.569968      1.0718235      33060.56     
      1800   506.9879       15686.932     -1687.5911      1177.9247      1877.6359      15763.839      62.127461      44.805404      1.0718235      33060.56     
      1900   492.42812      15816.977     -1674.3388      1156.2406      1865.2096      15901.966      88.980366      30.503293      1.0718235      33060.56     
      2000   500.64524      15742.784     -1708.7126      1159.9435      1932.5701      15757.62       115.05101      38.504991      1.0718235      33060.56     
      2100   506.26793      15692.747     -1744.44        1176.774       1917.806       15846.233      5.9026457      41.696002      1.0718235      33060.56     
      2200   498.74183      15770.527     -1712.4453      1147.2204      1945.5672      15889.58       14.220285      37.0045        1.0718235      33060.56     
      2300   498.15238      15929.907     -1693.3328      1165.9421      1966.0123      15931.457      86.558217      26.299714      1.0718235      33060.56     
      2400   507.74809      15844.84      -1682.5987      1153.9679      1969.3275      15895.531      33.387185      30.270563      1.0718235      33060.56     
      2500   504.31054      15875.137     -1717.4209      1161.6999      1985.9026      15833.044      128.90084      34.535254      1.0718235      33060.56     
      2600   501.73914      15898.008     -1682.4619      1167.5198      2066.3737      15831.515      30.225775      37.251925      1.0718235      33060.56     
      2700   505.08279      15867.963     -1689.621       1159.3152      1923.2043      15902.355      84.820272      42.80594       1.0718235      33060.56     
      2800   513.79226      15790.225     -1682.1951      1163.6358      1940.0962      15848.132      39.66428       35.529289      1.0718235      33060.56     
      2900   503.49628      15882.392     -1648.6626      1158.9085      1952.6144      15747.431      203.77133      23.165437      1.0718235      33060.56     
      3000   500.03113      15913.725     -1713.0143      1149.1499      2103.9601      15775.242      119.22479      33.053389      1.0718235      33060.56     
      3100   504.15292      15876.565     -1702.2219      1132.8703      1960.6163      15883.526      109.58019      49.536662      1.0718235      33060.56     
      3200   517.78084      15754.415     -1694.2398      1141.3283      1976.3371      15787.153      58.141932      42.020176      1.0718235      33060.56     
      3300   508.54533      15835.104     -1719.2301      1161.8015      1970.6984      15857.556      70.794805      46.214334      1.0718235      33060.56     
      3400   513.55053      15860.696     -1674.7107      1146.7515      2005.0866      15828.078      69.62281       41.254175      1.0718235      33060.56     
      3500   514.49474      15851.283     -1708.7164      1158.0938      1974.3728      15884.368      54.320702      43.437106      1.0718235      33060.56     
      3600   511.43977      15878.889     -1720.2351      1147.4166      2022.914       15820.142      116.21493      48.747001      1.0718235      33060.56     
      3700   509.74883      15893.852     -1692.6301      1157.8796      1982.3015      15827.006      118.91835      56.441089      1.0718235      33060.56     
      3800   507.98722      15909.059     -1739.409       1165.1919      2086.3141      15877.555      22.343226      52.701367      1.0718235      33060.56     
      3900   513.44789      15860.326     -1729.2889      1151.6936      1998.0999      15767.979      176.4947       50.996591      1.0718235      33060.56     
      4000   511.30529      15880.527     -1708.7255      1154.3617      1997.1124      15893.105      47.754047      50.427434      1.0718235      33060.56     
      4100   508.58401      15904.717     -1669.5412      1149.6171      1963.1771      15974.283      11.158532      31.690315      1.0718235      33060.56     
      4200   500.06394      15980.995     -1687.8861      1147.3356      2039.6567      15832.849      146.05734      56.78737       1.0718235      33060.56     
      4300   513.19686      15863.868     -1712.2049      1128.9469      2035.0102      15917.951     -2.0584482      51.913269      1.0718235      33060.56     
      4400   513.43144      15861.033     -1719.4384      1137.6853      1997.5312      15882.92       58.69195       58.539224      1.0718235      33060.56     
      4500   512.37257      15870.449     -1734.0841      1142.1673      2003.8695      15834.17       134.06593      46.493453      1.0718235      33060.56     
      4600   510.63596      15886.344     -1703.2509      1131.0895      1979.1666      15901.928      79.035547      46.919348      1.0718235      33060.56     
      4700   512.96479      15865.835     -1730.1621      1135.2638      1988.0943      15878.152      105.47265      41.088377      1.0718235      33060.56     
      4800   511.82093      15876.681     -1705.0643      1137.4794      1965.0502      15831.454      157.97258      43.276985      1.0718235      33060.56     
      4900   512.07126      15873.455     -1712.7711      1154.7485      2003.4778      15773.876      158.46042      53.023358      1.0718235      33060.56     
      5000   510.98986      15883.971     -1677.3395      1138.271       2032.6681      15815.936      94.09351       31.995622      1.0718235      33060.56     
      5100   511.27257      15880.409     -1709.3252      1142.5829      2014.9351      15863.761      78.757583      43.410686      1.0718235      33060.56     
      5200   511.4281       15879.642     -1711.9108      1144.8542      2022.7356      15873.317      57.526418      46.822725      1.0718235      33060.56     
      5300   519.6511       15805.699     -1721.1157      1139.7721      1957.6526      15796.087      148.70263      39.123274      1.0718235      33060.56     
      5400   504.46176      15941.944     -1709.4721      1133.7619      2114.8338      15869.613      42.110735      41.005905      1.0718235      33060.56     
      5500   515.85921      15840.18      -1743.1335      1133.4032      2053.2076      15869.109      32.285206      47.491998      1.0718235      33060.56     
      5600   514.03533      15855.022     -1657.4651      1147.1566      1982.5826      15876.334      20.979977      41.174163      1.0718235      33060.56     
      5700   510.13439      15890.722     -1693.9254      1132.3414      2061.2332      15836.672      54.262554      55.289297      1.0718235      33060.56     
      5800   519.34862      15808.115     -1700.6363      1131.682       2059.614       15764.163      51.567051      58.770194      1.0718235      33060.56     
      5900   519.52715      15806.011     -1733.4212      1149.1437      2090.808       15780.704      39.536963      34.6651        1.0718235      33060.56     
      6000   511.87185      15875.007     -1730.2816      1134.0944      2011.4231      15861.248      119.11174      36.186202      1.0718235      33060.56     
      6100   508.74121      15902.715     -1722.8262      1152.4386      2002.0086      15847.396      131.03458      48.731029      1.0718235      33060.56     
      6200   506.24225      15924.665     -1680.8118      1127.6003      2179.3043      15790.593      4.8140691      58.330156      1.0718235      33060.56     
      6300   514.94314      15847.618     -1710.9244      1117.5727      2004.7167      15780.048      162.5051       46.801179      1.0718235      33060.56     
      6400   522.43211      15780.383     -1740.6487      1132.0547      2099.2327      15781.297      24.038643      38.554568      1.0718235      33060.56     
      6500   511.36792      15879.386     -1725.0746      1134.8226      2024.6537      15876.668      77.473061      43.424368      1.0718235      33060.56     
      6600   512.29865      15871.121     -1720.8191      1129.1538      2093.0388      15859.317      26.195408      36.167215      1.0718235      33060.56     
      6700   508.99583      15900.93      -1746.5558      1139.6912      2115.5352      15969.063     -62.531672      34.922994      1.0718235      33060.56     
      6800   506.5334       15921.739     -1733.2849      1146.9331      2005.9643      15860.071      151.80191      43.165104      1.0718235      33060.56     
      6900   512.53532      15868.045     -1737.1532      1138.2031      2020.245       15892.463      77.284286      30.692747      1.0718235      33060.56     
      7000   514.81569      15848.589     -1719.151       1144.0987      2049.0784      15940.99      -51.134284      39.101302      1.0718235      33060.56     
      7100   512.17694      15872.583     -1734.434       1133.8666      2028.6102      15894.86       46.81844       55.29383       1.0718235      33060.56     
      7200   508.61219      15904.114     -1712.7862      1120.1205      2066.1992      15861.704      71.160942      50.47446       1.0718235      33060.56     
      7300   513.55514      15859.606     -1740.9161      1124.858       2078.0433      15914.75       10.36496       28.828947      1.0718235      33060.56     
      7400   519.67806      15804.644     -1709.4044      1127.638       2065.7021      15814.82       22.244918      38.664548      1.0718235      33060.56     
      7500   513.17794      15863.27      -1748.8307      1139.118       2063.9449      15837.928      84.225495      39.672476      1.0718235      33060.56     
      7600   527.24085      15737.559     -1763.9203      1119.6282      2061.4289      15686.259      157.18834      31.946194      1.0718235      33060.56     
      7700   511.89969      15874.69      -1747.5149      1124.4641      2068.3892      15829.137      105.82436      51.895785      1.0718235      33060.56     
      7800   516.96078      15829.338     -1701.8594      1143.639       2039.1893      15897.727     -33.324744      39.332835      1.0718235      33060.56     
      7900   512.55402      15868.907     -1757.3554      1146.975       2071.5551      15918.817      0.074006724    39.319615      1.0718235      33060.56     
      8000   518.97657      15811.292     -1738.545       1156.445       2005.1927      15835.691      64.153626      38.481003      1.0718235      33060.56     
      8100   515.59663      15842.055     -1708.2647      1143.6913      2016.1178      15850.797      47.611521      44.538483      1.0718235      33060.56     
      8200   507.88135      15910.058     -1752.4866      1125.7711      2085.2268      15878.017      93.145969      35.387952      1.0718235      33060.56     
      8300   504.694        15938.514     -1699.9468      1142.751       2113.8789      15857.774      54.599601      26.320037      1.0718235      33060.56     
      8400   511.2839       15879.339     -1793.7527      1131.9148      2094.1872      15875.299      87.615253      38.851081      1.0718235      33060.56     
      8500   513.80231      15857.108     -1757.0612      1131.884       2076.8353      15823.401      85.88953       50.139009      1.0718235      33060.56     
      8600   519.66908      15804.33      -1737.955       1128.5265      2026.8568      15750.913      138.93513      51.094945      1.0718235      33060.56     
      8700   509.35517      15897.651     -1786.6648      1133.3219      2133.6196      15776.549      150.33151      46.625221      1.0718235      33060.56     
      8800   509.70659      15893.24      -1748.2208      1131.6946      2125.1432      15835.672      45.473362      54.577924      1.0718235      33060.56     
      8900   505.49179      15931.884     -1751.6282      1140.4521      2054.5979      15852.5        144.39624      41.598976      1.0718235      33060.56     
      9000   506.56024      15923.193     -1734.3983      1137.8676      2044.4307      15867.463      112.44         46.555875      1.0718235      33060.56     
      9100   513.32336      15862.998     -1748.945       1125.7706      2125.9563      15819.647      65.339309      27.666582      1.0718235      33060.56     
      9200   512.81306      15867.358     -1736.1441      1124.6554      2129.2639      15760.061      103.36673      38.47474       1.0718235      33060.56     
      9300   514.00202      15856.211     -1728.2375      1141.6333      2081.4093      15872.745      6.5232868      36.809014      1.0718235      33060.56     
      9400   516.32956      15835.245     -1770.6781      1129.7037      1986.5931      15806.819      186.69804      50.48368       1.0718235      33060.56     
      9500   512.16007      15872.162     -1729.967       1149.5799      2109.3818      15874.913     -19.464092      43.961892      1.0718235      33060.56     
      9600   513.09526      15865.183     -1764.445       1135.8192      2055.7659      15825.184      122.20036      45.838082      1.0718235      33060.56     
      9700   500.53165      15977.693     -1787.2998      1120.1254      2100.5619      15905.69       141.36442      52.50779       1.0718235      33060.56     
      9800   516.50825      15834.969     -1755.1478      1128.2311      2048.3002      15910.252      24.365994      32.399391      1.0718235      33060.56     
      9900   513.08938      15866.46      -1742.6162      1127.4468      2115.7434      15767.746      109.0724       44.885387      1.0718235      33060.56     
     10000   514.85495      15849.067     -1731.5706      1130.0119      2082.0432      15770.584      105.66463      51.855526      1.0718235      33060.56     
Loop time of 7680.77 on 2 procs for 10000 steps with 2996 atoms

Performance: 0.225 ns/day, 106.677 hours/ns, 1.302 timesteps/s, 3.901 katom-step/s
33.8% CPU use with 2 MPI tasks x no OpenMP threads

MPI task timing breakdown:
Section |  min time  |  avg time  |  max time  |%varavg| %total
---------------------------------------------------------------
Pair    | 204.39     | 214.58     | 224.77     |  69.6 |  2.79
Bond    | 382.79     | 384.98     | 387.16     |  11.1 |  5.01
Kspace  | 1745.1     | 1745.2     | 1745.2     |   0.1 | 22.72
Neigh   | 55.359     | 55.368     | 55.377     |   0.1 |  0.72
Comm    | 5188.1     | 5195.9     | 5203.7     |  10.8 | 67.65
Output  | 6.9662     | 6.9823     | 6.9985     |   0.6 |  0.09
Modify  | 2.2153     | 2.2287     | 2.2421     |   0.9 |  0.03
Other   |            | 75.56      |            |       |  0.98

Nlocal:           1498 ave        1512 max        1484 min
Histogram: 1 0 0 0 0 0 0 0 0 1
Nghost:           9954 ave        9957 max        9951 min
Histogram: 1 0 0 0 0 0 0 0 0 1
Neighs:         490597 ave      509219 max      471975 min
Histogram: 1 0 0 0 0 0 0 0 0 1

Total # of neighbors = 981194
Ave neighs/atom = 327.50134
Ave special neighs/atom = 9.2870494
Neighbor list builds = 941
Dangerous builds = 0
Total wall time: 2:08:00
