LAMMPS (22 Dec 2022)
WARNING: Using I/O redirection is unreliable with parallel runs. Better to use the -in switch to read input files. (../lammps.cpp:531)
# PREREQUISITES:
#
#     You must use moltemplate.sh to create 3 files:
#        system.data  system.in.init  system.in.settings
#     (Follow the instructions in README_setup.sh,
#      or run the file as a script using ./README_setup.sh)

# ------------------------------- Initialization Section --------------------

units real
atom_style full
pair_style lj/class2/coul/long 10.0
kspace_style pppm 1.0e-4
bond_style class2
angle_style class2
dihedral_style class2
improper_style class2


# ------------------------------- Atom Definition Section -------------------

read_data       "pack_mol.data" extra/bond/per/atom 1 extra/angle/per/atom 12 extra/dihedral/per/atom 12 extra/improper/per/atom 12 extra/special/per/atom 12
Reading data file ...
  orthogonal box = (0 0 0) to (46.421867 46.421867 46.421867)
  1 by 2 by 3 MPI processor grid
  reading atoms ...
  3976 atoms
  scanning bonds ...
  5 = max bonds/atom
  scanning angles ...
  18 = max angles/atom
  scanning dihedrals ...
  30 = max dihedrals/atom
  scanning impropers ...
  16 = max impropers/atom
  reading bonds ...
  4628 bonds
  reading angles ...
  10230 angles
  reading dihedrals ...
  18834 dihedrals
  reading impropers ...
  6600 impropers
Finding 1-2 1-3 1-4 neighbors ...
  special bond factors lj:    0        0        0       
  special bond factors coul:  0        0        0       
     4 = max # of 1-2 neighbors
     9 = max # of 1-3 neighbors
    25 = max # of 1-4 neighbors
    36 = max # of special neighbors
  special bonds CPU = 0.001 seconds
  read_data CPU = 0.093 seconds

include calc.pram

# Masses

mass		1    12.01115  # c
mass		2    12.01115  # c1
mass		3    12.01115  # c3h
mass		4     1.00797  # h
mass		5     1.00797  # hc
mass		6    15.99940  # o3e
mass		7    15.99940  # oc
mass		8    15.99940  # oh

# Potentials

pair_coeff	 1  1    0.05400    4.01000  # c,c
pair_coeff	 2  2    0.05400    4.01000  # c1,c1
pair_coeff	 3  3    0.05400    4.01000  # c3h,c3h
pair_coeff	 4  4    0.02000    2.99500  # h,h
pair_coeff	 5  5    0.02000    2.99500  # hc,hc
pair_coeff	 6  6    0.24000    3.53500  # o3e,o3e
pair_coeff	 7  7    0.24000    3.53500  # oc,oc
pair_coeff	 8  8    0.24000    3.53500  # oh,oh

# Bond Coeffs

bond_coeff	 1    1.53000  299.67000 -501.77000  679.81000  # c,c
bond_coeff	 2    1.53000  299.67000 -501.77000  679.81000  # c,c1
bond_coeff	 3    1.53000  299.67000 -501.77000  679.81000  # c,c3h
bond_coeff	 4    1.10100  345.00000 -691.89000  844.60000  # c,hc
bond_coeff	 5    1.53000  299.67000 -501.77000  679.81000  # c1,c1
bond_coeff	 6    1.53000  299.67000 -501.77000  679.81000  # c1,c3h
bond_coeff	 7    1.10100  345.00000 -691.89000  844.60000  # c1,hc
bond_coeff	 8    1.42000  400.39540 -835.19510 1313.01420  # c1,o3e
bond_coeff	 9    1.42000  400.39540 -835.19510 1313.01420  # c1,oc
bond_coeff	10    1.42000  400.39540 -835.19510 1313.01420  # c1,oh
bond_coeff	11    1.53000  299.67000 -501.77000  679.81000  # c3h,c3h
bond_coeff	12    1.10100  345.00000 -691.89000  844.60000  # c3h,hc
bond_coeff	13    1.42000  400.39540 -835.19510 1313.01420  # c3h,o3e
bond_coeff	14    0.96000  493.84800    0.00000    0.00000  # h,oh

# Angle Coeffs

angle_coeff	 1  112.67000   39.51600   -7.44300   -9.55830  # c,c,c1
angle_coeff	 2  110.77000   41.45300  -10.60400    5.12900  # c,c,hc
angle_coeff	 3  112.67000   39.51600   -7.44300   -9.55830  # c,c1,c
angle_coeff	 4  112.67000   39.51600   -7.44300   -9.55830  # c,c1,c1
angle_coeff	 5  110.77000   41.45300  -10.60400    5.12900  # c,c1,hc
angle_coeff	 6  111.27000   54.53810   -8.36420  -13.08380  # c,c1,o3e
angle_coeff	 7  111.27000   54.53810   -8.36420  -13.08380  # c,c1,oc
angle_coeff	 8  112.67000   39.51600   -7.44300   -9.55830  # c,c3h,c3h
angle_coeff	 9  110.77000   41.45300  -10.60400    5.12900  # c,c3h,hc
angle_coeff	10  111.27000   54.53810   -8.36420  -13.08380  # c,c3h,o3e
angle_coeff	11  112.67000   39.51600   -7.44300   -9.55830  # c1,c,c1
angle_coeff	12  112.67000   39.51600   -7.44300   -9.55830  # c1,c,c3h
angle_coeff	13  110.77000   41.45300  -10.60400    5.12900  # c1,c,hc
angle_coeff	14  112.67000   39.51600   -7.44300   -9.55830  # c1,c1,c1
angle_coeff	15  112.67000   39.51600   -7.44300   -9.55830  # c1,c1,c3h
angle_coeff	16  110.77000   41.45300  -10.60400    5.12900  # c1,c1,hc
angle_coeff	17  111.27000   54.53810   -8.36420  -13.08380  # c1,c1,o3e
angle_coeff	18  111.27000   54.53810   -8.36420  -13.08380  # c1,c1,oc
angle_coeff	19  111.27000   54.53810   -8.36420  -13.08380  # c1,c1,oh
angle_coeff	20  112.67000   39.51600   -7.44300   -9.55830  # c1,c3h,c3h
angle_coeff	21  110.77000   41.45300  -10.60400    5.12900  # c1,c3h,hc
angle_coeff	22  111.27000   54.53810   -8.36420  -13.08380  # c1,c3h,o3e
angle_coeff	23  104.50000   35.74540  -10.00670   -6.27290  # c1,o3e,c1
angle_coeff	24  104.50000   35.74540  -10.00670   -6.27290  # c1,oc,c1
angle_coeff	25  109.00000   58.50000    0.00000    0.00000  # c1,oh,h
angle_coeff	26  110.77000   41.45300  -10.60400    5.12900  # c3h,c,hc
angle_coeff	27  110.77000   41.45300  -10.60400    5.12900  # c3h,c1,hc
angle_coeff	28  110.77000   41.45300  -10.60400    5.12900  # c3h,c3h,hc
angle_coeff	29  111.27000   54.53810   -8.36420  -13.08380  # c3h,c3h,o3e
angle_coeff	30  104.50000   35.74540  -10.00670   -6.27290  # c3h,o3e,c3h
angle_coeff	31  107.66000   39.64100  -12.92100   -2.43180  # hc,c,hc
angle_coeff	32  108.72800   58.54460  -10.80880  -12.40060  # hc,c1,o3e
angle_coeff	33  108.72800   58.54460  -10.80880  -12.40060  # hc,c1,oc
angle_coeff	34  108.72800   58.54460  -10.80880  -12.40060  # hc,c1,oh
angle_coeff	35  108.72800   58.54460  -10.80880  -12.40060  # hc,c3h,o3e

# BondBond Coeffs

angle_coeff	 1 bb    0.00000    1.53000    1.53000  # c,c,c1
angle_coeff	 2 bb    3.38720    1.53000    1.10100  # c,c,hc
angle_coeff	 3 bb    0.00000    1.53000    1.53000  # c,c1,c
angle_coeff	 4 bb    0.00000    1.53000    1.53000  # c,c1,c1
angle_coeff	 5 bb    3.38720    1.53000    1.10100  # c,c1,hc
angle_coeff	 6 bb   11.43180    1.53000    1.42000  # c,c1,o3e
angle_coeff	 7 bb   11.43180    1.53000    1.42000  # c,c1,oc
angle_coeff	 8 bb    0.00000    1.53000    1.53000  # c,c3h,c3h
angle_coeff	 9 bb    3.38720    1.53000    1.10100  # c,c3h,hc
angle_coeff	10 bb   11.43180    1.53000    1.42000  # c,c3h,o3e
angle_coeff	11 bb    0.00000    1.53000    1.53000  # c1,c,c1
angle_coeff	12 bb    0.00000    1.53000    1.53000  # c1,c,c3h
angle_coeff	13 bb    3.38720    1.53000    1.10100  # c1,c,hc
angle_coeff	14 bb    0.00000    1.53000    1.53000  # c1,c1,c1
angle_coeff	15 bb    0.00000    1.53000    1.53000  # c1,c1,c3h
angle_coeff	16 bb    3.38720    1.53000    1.10100  # c1,c1,hc
angle_coeff	17 bb   11.43180    1.53000    1.42000  # c1,c1,o3e
angle_coeff	18 bb   11.43180    1.53000    1.42000  # c1,c1,oc
angle_coeff	19 bb   11.43180    1.53000    1.42000  # c1,c1,oh
angle_coeff	20 bb    0.00000    1.53000    1.53000  # c1,c3h,c3h
angle_coeff	21 bb    3.38720    1.53000    1.10100  # c1,c3h,hc
angle_coeff	22 bb   11.43180    1.53000    1.42000  # c1,c3h,o3e
angle_coeff	23 bb   -7.11310    1.42000    1.42000  # c1,o3e,c1
angle_coeff	24 bb   -7.11310    1.42000    1.42000  # c1,oc,c1
angle_coeff	25 bb    0.00000    1.42000    0.96000  # c1,oh,h
angle_coeff	26 bb    3.38720    1.53000    1.10100  # c3h,c,hc
angle_coeff	27 bb    3.38720    1.53000    1.10100  # c3h,c1,hc
angle_coeff	28 bb    3.38720    1.53000    1.10100  # c3h,c3h,hc
angle_coeff	29 bb   11.43180    1.53000    1.42000  # c3h,c3h,o3e
angle_coeff	30 bb   -7.11310    1.42000    1.42000  # c3h,o3e,c3h
angle_coeff	31 bb    5.33160    1.10100    1.10100  # hc,c,hc
angle_coeff	32 bb   23.19790    1.10100    1.42000  # hc,c1,o3e
angle_coeff	33 bb   23.19790    1.10100    1.42000  # hc,c1,oc
angle_coeff	34 bb   23.19790    1.10100    1.42000  # hc,c1,oh
angle_coeff	35 bb   23.19790    1.10100    1.42000  # hc,c3h,o3e

# BondAngle Coeffs

angle_coeff	 1 ba    8.01600    8.01600    1.53000    1.53000  # c,c,c1
angle_coeff	 2 ba   11.42100   20.75400    1.53000    1.10100  # c,c,hc
angle_coeff	 3 ba    8.01600    8.01600    1.53000    1.53000  # c,c1,c
angle_coeff	 4 ba    8.01600    8.01600    1.53000    1.53000  # c,c1,c1
angle_coeff	 5 ba   11.42100   20.75400    1.53000    1.10100  # c,c1,hc
angle_coeff	 6 ba    2.68680   20.40330    1.53000    1.42000  # c,c1,o3e
angle_coeff	 7 ba   20.40330    2.68680    1.53000    1.42000  # c,c1,oc
angle_coeff	 8 ba    8.01600    8.01600    1.53000    1.53000  # c,c3h,c3h
angle_coeff	 9 ba   11.42100   20.75400    1.53000    1.10100  # c,c3h,hc
angle_coeff	10 ba    2.68680   20.40330    1.53000    1.42000  # c,c3h,o3e
angle_coeff	11 ba    8.01600    8.01600    1.53000    1.53000  # c1,c,c1
angle_coeff	12 ba    8.01600    8.01600    1.53000    1.53000  # c1,c,c3h
angle_coeff	13 ba   20.75400   11.42100    1.53000    1.10100  # c1,c,hc
angle_coeff	14 ba    8.01600    8.01600    1.53000    1.53000  # c1,c1,c1
angle_coeff	15 ba    8.01600    8.01600    1.53000    1.53000  # c1,c1,c3h
angle_coeff	16 ba   20.75400   11.42100    1.53000    1.10100  # c1,c1,hc
angle_coeff	17 ba    2.68680   20.40330    1.53000    1.42000  # c1,c1,o3e
angle_coeff	18 ba    2.68680   20.40330    1.53000    1.42000  # c1,c1,oc
angle_coeff	19 ba   20.40330    2.68680    1.53000    1.42000  # c1,c1,oh
angle_coeff	20 ba    8.01600    8.01600    1.53000    1.53000  # c1,c3h,c3h
angle_coeff	21 ba   20.75400   11.42100    1.53000    1.10100  # c1,c3h,hc
angle_coeff	22 ba    2.68680   20.40330    1.53000    1.42000  # c1,c3h,o3e
angle_coeff	23 ba   -2.81120   -2.81120    1.42000    1.42000  # c1,o3e,c1
angle_coeff	24 ba   -2.81120   -2.81120    1.42000    1.42000  # c1,oc,c1
angle_coeff	25 ba    0.00000    0.00000    1.42000    0.96000  # c1,oh,h
angle_coeff	26 ba   11.42100   20.75400    1.53000    1.10100  # c3h,c,hc
angle_coeff	27 ba   11.42100   20.75400    1.53000    1.10100  # c3h,c1,hc
angle_coeff	28 ba   11.42100   20.75400    1.53000    1.10100  # c3h,c3h,hc
angle_coeff	29 ba   20.40330    2.68680    1.53000    1.42000  # c3h,c3h,o3e
angle_coeff	30 ba   -2.81120   -2.81120    1.42000    1.42000  # c3h,o3e,c3h
angle_coeff	31 ba   18.10300   18.10300    1.10100    1.10100  # hc,c,hc
angle_coeff	32 ba    4.61890   55.32700    1.10100    1.42000  # hc,c1,o3e
angle_coeff	33 ba    4.61890   55.32700    1.10100    1.42000  # hc,c1,oc
angle_coeff	34 ba   55.32700    4.61890    1.10100    1.42000  # hc,c1,oh
angle_coeff	35 ba    4.61890   55.32700    1.10100    1.42000  # hc,c3h,o3e

# Dihedral Coeffs

dihedral_coeff	 1    0.00000    0.00000    0.05140    0.00000   -0.14300    0.00000  # c,c,c1,c1
dihedral_coeff	 2    0.00000    0.00000    0.03160    0.00000   -0.16810    0.00000  # c,c,c1,hc
dihedral_coeff	 3    0.71370    0.00000    0.26600    0.00000   -0.25450    0.00000  # c,c,c1,oc
dihedral_coeff	 4    0.00000    0.00000    0.05140    0.00000   -0.14300    0.00000  # c,c1,c,c1
dihedral_coeff	 5    0.00000    0.00000    0.03160    0.00000   -0.16810    0.00000  # c,c1,c,hc
dihedral_coeff	 6    0.00000    0.00000    0.05140    0.00000   -0.14300    0.00000  # c,c1,c1,c
dihedral_coeff	 7    0.00000    0.00000    0.05140    0.00000   -0.14300    0.00000  # c,c1,c1,c1
dihedral_coeff	 8    0.00000    0.00000    0.05140    0.00000   -0.14300    0.00000  # c,c1,c1,c3h
dihedral_coeff	 9    0.00000    0.00000    0.03160    0.00000   -0.16810    0.00000  # c,c1,c1,hc
dihedral_coeff	10    0.71370    0.00000    0.26600    0.00000   -0.25450    0.00000  # c,c1,c1,o3e
dihedral_coeff	11    0.71370    0.00000    0.26600    0.00000   -0.25450    0.00000  # c,c1,c1,oc
dihedral_coeff	12    0.71370    0.00000    0.26600    0.00000   -0.25450    0.00000  # c,c1,c1,oh
dihedral_coeff	13   -0.52030    0.00000   -0.30280    0.00000   -0.34500    0.00000  # c,c1,o3e,c1
dihedral_coeff	14   -0.52030    0.00000   -0.30280    0.00000   -0.34500    0.00000  # c,c1,oc,c1
dihedral_coeff	15    0.00000    0.00000    0.05140    0.00000   -0.14300    0.00000  # c,c3h,c3h,c1
dihedral_coeff	16    0.00000    0.00000    0.03160    0.00000   -0.16810    0.00000  # c,c3h,c3h,hc
dihedral_coeff	17    0.71370    0.00000    0.26600    0.00000   -0.25450    0.00000  # c,c3h,c3h,o3e
dihedral_coeff	18   -0.52030    0.00000   -0.30280    0.00000   -0.34500    0.00000  # c,c3h,o3e,c3h
dihedral_coeff	19    0.00000    0.00000    0.05140    0.00000   -0.14300    0.00000  # c1,c,c,c1
dihedral_coeff	20    0.00000    0.00000    0.03160    0.00000   -0.16810    0.00000  # c1,c,c,hc
dihedral_coeff	21    0.00000    0.00000    0.05140    0.00000   -0.14300    0.00000  # c1,c,c1,c1
dihedral_coeff	22    0.00000    0.00000    0.03160    0.00000   -0.16810    0.00000  # c1,c,c1,hc
dihedral_coeff	23    0.71370    0.00000    0.26600    0.00000   -0.25450    0.00000  # c1,c,c1,o3e
dihedral_coeff	24    0.71370    0.00000    0.26600    0.00000   -0.25450    0.00000  # c1,c,c1,oc
dihedral_coeff	25    0.00000    0.00000    0.05140    0.00000   -0.14300    0.00000  # c1,c,c3h,c3h
dihedral_coeff	26    0.00000    0.00000    0.03160    0.00000   -0.16810    0.00000  # c1,c,c3h,hc
dihedral_coeff	27    0.71370    0.00000    0.26600    0.00000   -0.25450    0.00000  # c1,c,c3h,o3e
dihedral_coeff	28    0.00000    0.00000    0.05140    0.00000   -0.14300    0.00000  # c1,c1,c,c3h
dihedral_coeff	29    0.00000    0.00000    0.03160    0.00000   -0.16810    0.00000  # c1,c1,c,hc
dihedral_coeff	30    0.00000    0.00000    0.05140    0.00000   -0.14300    0.00000  # c1,c1,c1,c1
dihedral_coeff	31    0.00000    0.00000    0.05140    0.00000   -0.14300    0.00000  # c1,c1,c1,c3h
dihedral_coeff	32    0.00000    0.00000    0.03160    0.00000   -0.16810    0.00000  # c1,c1,c1,hc
dihedral_coeff	33    0.71370    0.00000    0.26600    0.00000   -0.25450    0.00000  # c1,c1,c1,o3e
dihedral_coeff	34    0.71370    0.00000    0.26600    0.00000   -0.25450    0.00000  # c1,c1,c1,oc
dihedral_coeff	35    0.71370    0.00000    0.26600    0.00000   -0.25450    0.00000  # c1,c1,c1,oh
dihedral_coeff	36    0.00000    0.00000    0.05140    0.00000   -0.14300    0.00000  # c1,c1,c3h,c3h
dihedral_coeff	37    0.00000    0.00000    0.03160    0.00000   -0.16810    0.00000  # c1,c1,c3h,hc
dihedral_coeff	38    0.71370    0.00000    0.26600    0.00000   -0.25450    0.00000  # c1,c1,c3h,o3e
dihedral_coeff	39   -0.52030    0.00000   -0.30280    0.00000   -0.34500    0.00000  # c1,c1,o3e,c1
dihedral_coeff	40   -0.52030    0.00000   -0.30280    0.00000   -0.34500    0.00000  # c1,c1,oc,c1
dihedral_coeff	41    0.00000    0.00000    0.00000    0.00000    0.13000  180.00000  # c1,c1,oh,h
dihedral_coeff	42    0.00000    0.00000    0.03160    0.00000   -0.16810    0.00000  # c1,c3h,c3h,hc
dihedral_coeff	43    0.71370    0.00000    0.26600    0.00000   -0.25450    0.00000  # c1,c3h,c3h,o3e
dihedral_coeff	44   -0.52030    0.00000   -0.30280    0.00000   -0.34500    0.00000  # c1,c3h,o3e,c3h
dihedral_coeff	45    0.53020    0.00000    0.00000    0.00000   -0.39660    0.00000  # c1,o3e,c1,hc
dihedral_coeff	46    0.53020    0.00000    0.00000    0.00000   -0.39660    0.00000  # c1,oc,c1,hc
dihedral_coeff	47    0.00000    0.00000    0.03160    0.00000   -0.16810    0.00000  # c3h,c,c1,hc
dihedral_coeff	48    0.00000    0.00000    0.03160    0.00000   -0.16810    0.00000  # c3h,c1,c1,hc
dihedral_coeff	49    0.00000    0.00000    0.03160    0.00000   -0.16810    0.00000  # c3h,c3h,c,hc
dihedral_coeff	50    0.00000    0.00000    0.03160    0.00000   -0.16810    0.00000  # c3h,c3h,c1,hc
dihedral_coeff	51    0.53020    0.00000    0.00000    0.00000   -0.39660    0.00000  # c3h,o3e,c3h,hc
dihedral_coeff	52    0.00000    0.00000    0.00000    0.00000    0.13000  180.00000  # h,oh,c1,hc
dihedral_coeff	53   -0.14320    0.00000    0.06170    0.00000   -0.10830    0.00000  # hc,c,c,hc
dihedral_coeff	54   -0.14320    0.00000    0.06170    0.00000   -0.10830    0.00000  # hc,c,c1,hc
dihedral_coeff	55   -0.14350    0.00000    0.25300    0.00000   -0.09050    0.00000  # hc,c,c1,o3e
dihedral_coeff	56   -0.14350    0.00000    0.25300    0.00000   -0.09050    0.00000  # hc,c,c1,oc
dihedral_coeff	57   -0.14320    0.00000    0.06170    0.00000   -0.10830    0.00000  # hc,c,c3h,hc
dihedral_coeff	58   -0.14350    0.00000    0.25300    0.00000   -0.09050    0.00000  # hc,c,c3h,o3e
dihedral_coeff	59   -0.14320    0.00000    0.06170    0.00000   -0.10830    0.00000  # hc,c1,c1,hc
dihedral_coeff	60   -0.14350    0.00000    0.25300    0.00000   -0.09050    0.00000  # hc,c1,c1,o3e
dihedral_coeff	61   -0.14350    0.00000    0.25300    0.00000   -0.09050    0.00000  # hc,c1,c1,oc
dihedral_coeff	62   -0.14350    0.00000    0.25300    0.00000   -0.09050    0.00000  # hc,c1,c1,oh
dihedral_coeff	63   -0.14320    0.00000    0.06170    0.00000   -0.10830    0.00000  # hc,c1,c3h,hc
dihedral_coeff	64   -0.14350    0.00000    0.25300    0.00000   -0.09050    0.00000  # hc,c1,c3h,o3e
dihedral_coeff	65   -0.14320    0.00000    0.06170    0.00000   -0.10830    0.00000  # hc,c3h,c3h,hc
dihedral_coeff	66   -0.14350    0.00000    0.25300    0.00000   -0.09050    0.00000  # hc,c3h,c3h,o3e
dihedral_coeff	67   -0.18200    0.00000   -0.10840    0.00000   -0.70470    0.00000  # oc,c1,c1,oc
dihedral_coeff	68   -0.18200    0.00000   -0.10840    0.00000   -0.70470    0.00000  # oc,c1,c1,oh

# MiddleBondTorsion Coeffs

dihedral_coeff	 1 mbt  -17.78700   -7.18770    0.00000    1.53000  # c,c,c1,c1
dihedral_coeff	 2 mbt  -14.87900   -3.65810   -0.31380    1.53000  # c,c,c1,hc
dihedral_coeff	 3 mbt  -21.88420   -7.67640   -0.68680    1.53000  # c,c,c1,oc
dihedral_coeff	 4 mbt  -17.78700   -7.18770    0.00000    1.53000  # c,c1,c,c1
dihedral_coeff	 5 mbt  -14.87900   -3.65810   -0.31380    1.53000  # c,c1,c,hc
dihedral_coeff	 6 mbt  -17.78700   -7.18770    0.00000    1.53000  # c,c1,c1,c
dihedral_coeff	 7 mbt  -17.78700   -7.18770    0.00000    1.53000  # c,c1,c1,c1
dihedral_coeff	 8 mbt  -17.78700   -7.18770    0.00000    1.53000  # c,c1,c1,c3h
dihedral_coeff	 9 mbt  -14.87900   -3.65810   -0.31380    1.53000  # c,c1,c1,hc
dihedral_coeff	10 mbt  -21.88420   -7.67640   -0.68680    1.53000  # c,c1,c1,o3e
dihedral_coeff	11 mbt  -21.88420   -7.67640   -0.68680    1.53000  # c,c1,c1,oc
dihedral_coeff	12 mbt  -21.88420   -7.67640   -0.68680    1.53000  # c,c1,c1,oh
dihedral_coeff	13 mbt   -5.92880   -2.70070   -0.31750    1.42000  # c,c1,o3e,c1
dihedral_coeff	14 mbt   -5.92880   -2.70070   -0.31750    1.42000  # c,c1,oc,c1
dihedral_coeff	15 mbt  -17.78700   -7.18770    0.00000    1.53000  # c,c3h,c3h,c1
dihedral_coeff	16 mbt  -14.87900   -3.65810   -0.31380    1.53000  # c,c3h,c3h,hc
dihedral_coeff	17 mbt  -21.88420   -7.67640   -0.68680    1.53000  # c,c3h,c3h,o3e
dihedral_coeff	18 mbt   -5.92880   -2.70070   -0.31750    1.42000  # c,c3h,o3e,c3h
dihedral_coeff	19 mbt  -17.78700   -7.18770    0.00000    1.53000  # c1,c,c,c1
dihedral_coeff	20 mbt  -14.87900   -3.65810   -0.31380    1.53000  # c1,c,c,hc
dihedral_coeff	21 mbt  -17.78700   -7.18770    0.00000    1.53000  # c1,c,c1,c1
dihedral_coeff	22 mbt  -14.87900   -3.65810   -0.31380    1.53000  # c1,c,c1,hc
dihedral_coeff	23 mbt  -21.88420   -7.67640   -0.68680    1.53000  # c1,c,c1,o3e
dihedral_coeff	24 mbt  -21.88420   -7.67640   -0.68680    1.53000  # c1,c,c1,oc
dihedral_coeff	25 mbt  -17.78700   -7.18770    0.00000    1.53000  # c1,c,c3h,c3h
dihedral_coeff	26 mbt  -14.87900   -3.65810   -0.31380    1.53000  # c1,c,c3h,hc
dihedral_coeff	27 mbt  -21.88420   -7.67640   -0.68680    1.53000  # c1,c,c3h,o3e
dihedral_coeff	28 mbt  -17.78700   -7.18770    0.00000    1.53000  # c1,c1,c,c3h
dihedral_coeff	29 mbt  -14.87900   -3.65810   -0.31380    1.53000  # c1,c1,c,hc
dihedral_coeff	30 mbt  -17.78700   -7.18770    0.00000    1.53000  # c1,c1,c1,c1
dihedral_coeff	31 mbt  -17.78700   -7.18770    0.00000    1.53000  # c1,c1,c1,c3h
dihedral_coeff	32 mbt  -14.87900   -3.65810   -0.31380    1.53000  # c1,c1,c1,hc
dihedral_coeff	33 mbt  -21.88420   -7.67640   -0.68680    1.53000  # c1,c1,c1,o3e
dihedral_coeff	34 mbt  -21.88420   -7.67640   -0.68680    1.53000  # c1,c1,c1,oc
dihedral_coeff	35 mbt  -21.88420   -7.67640   -0.68680    1.53000  # c1,c1,c1,oh
dihedral_coeff	36 mbt  -17.78700   -7.18770    0.00000    1.53000  # c1,c1,c3h,c3h
dihedral_coeff	37 mbt  -14.87900   -3.65810   -0.31380    1.53000  # c1,c1,c3h,hc
dihedral_coeff	38 mbt  -21.88420   -7.67640   -0.68680    1.53000  # c1,c1,c3h,o3e
dihedral_coeff	39 mbt   -5.92880   -2.70070   -0.31750    1.42000  # c1,c1,o3e,c1
dihedral_coeff	40 mbt   -5.92880   -2.70070   -0.31750    1.42000  # c1,c1,oc,c1
dihedral_coeff	41 mbt    0.00000    0.00000    0.00000    1.42000  # c1,c1,oh,h
dihedral_coeff	42 mbt  -14.87900   -3.65810   -0.31380    1.53000  # c1,c3h,c3h,hc
dihedral_coeff	43 mbt  -21.88420   -7.67640   -0.68680    1.53000  # c1,c3h,c3h,o3e
dihedral_coeff	44 mbt   -5.92880   -2.70070   -0.31750    1.42000  # c1,c3h,o3e,c3h
dihedral_coeff	45 mbt   -6.80070   -4.65460   -1.41010    1.42000  # c1,o3e,c1,hc
dihedral_coeff	46 mbt   -6.80070   -4.65460   -1.41010    1.42000  # c1,oc,c1,hc
dihedral_coeff	47 mbt  -14.87900   -3.65810   -0.31380    1.53000  # c3h,c,c1,hc
dihedral_coeff	48 mbt  -14.87900   -3.65810   -0.31380    1.53000  # c3h,c1,c1,hc
dihedral_coeff	49 mbt  -14.87900   -3.65810   -0.31380    1.53000  # c3h,c3h,c,hc
dihedral_coeff	50 mbt  -14.87900   -3.65810   -0.31380    1.53000  # c3h,c3h,c1,hc
dihedral_coeff	51 mbt   -6.80070   -4.65460   -1.41010    1.42000  # c3h,o3e,c3h,hc
dihedral_coeff	52 mbt    0.00000    0.00000    0.00000    1.42000  # h,oh,c1,hc
dihedral_coeff	53 mbt  -14.26100   -0.53220   -0.48640    1.53000  # hc,c,c,hc
dihedral_coeff	54 mbt  -14.26100   -0.53220   -0.48640    1.53000  # hc,c,c1,hc
dihedral_coeff	55 mbt  -16.79750   -1.22960   -0.27500    1.53000  # hc,c,c1,o3e
dihedral_coeff	56 mbt  -16.79750   -1.22960   -0.27500    1.53000  # hc,c,c1,oc
dihedral_coeff	57 mbt  -14.26100   -0.53220   -0.48640    1.53000  # hc,c,c3h,hc
dihedral_coeff	58 mbt  -16.79750   -1.22960   -0.27500    1.53000  # hc,c,c3h,o3e
dihedral_coeff	59 mbt  -14.26100   -0.53220   -0.48640    1.53000  # hc,c1,c1,hc
dihedral_coeff	60 mbt  -16.79750   -1.22960   -0.27500    1.53000  # hc,c1,c1,o3e
dihedral_coeff	61 mbt  -16.79750   -1.22960   -0.27500    1.53000  # hc,c1,c1,oc
dihedral_coeff	62 mbt  -16.79750   -1.22960   -0.27500    1.53000  # hc,c1,c1,oh
dihedral_coeff	63 mbt  -14.26100   -0.53220   -0.48640    1.53000  # hc,c1,c3h,hc
dihedral_coeff	64 mbt  -16.79750   -1.22960   -0.27500    1.53000  # hc,c1,c3h,o3e
dihedral_coeff	65 mbt  -14.26100   -0.53220   -0.48640    1.53000  # hc,c3h,c3h,hc
dihedral_coeff	66 mbt  -16.79750   -1.22960   -0.27500    1.53000  # hc,c3h,c3h,o3e
dihedral_coeff	67 mbt  -17.25850   -3.61570   -0.83640    1.53000  # oc,c1,c1,oc
dihedral_coeff	68 mbt  -17.25850   -3.61570   -0.83640    1.53000  # oc,c1,c1,oh

# EndBondTorsion Coeffs

dihedral_coeff	 1 ebt   -0.07320    0.00000    0.00000   -0.07320    0.00000    0.00000    1.53000    1.53000  # c,c,c1,c1
dihedral_coeff	 2 ebt    0.08140    0.05910    0.22190    0.24860    0.24220   -0.09250    1.53000    1.10100  # c,c,c1,hc
dihedral_coeff	 3 ebt    1.15380    0.84090   -0.91380   -0.31900    0.44110   -0.71740    1.53000    1.42000  # c,c,c1,oc
dihedral_coeff	 4 ebt   -0.07320    0.00000    0.00000   -0.07320    0.00000    0.00000    1.53000    1.53000  # c,c1,c,c1
dihedral_coeff	 5 ebt    0.08140    0.05910    0.22190    0.24860    0.24220   -0.09250    1.53000    1.10100  # c,c1,c,hc
dihedral_coeff	 6 ebt   -0.07320    0.00000    0.00000   -0.07320    0.00000    0.00000    1.53000    1.53000  # c,c1,c1,c
dihedral_coeff	 7 ebt   -0.07320    0.00000    0.00000   -0.07320    0.00000    0.00000    1.53000    1.53000  # c,c1,c1,c1
dihedral_coeff	 8 ebt   -0.07320    0.00000    0.00000   -0.07320    0.00000    0.00000    1.53000    1.53000  # c,c1,c1,c3h
dihedral_coeff	 9 ebt    0.08140    0.05910    0.22190    0.24860    0.24220   -0.09250    1.53000    1.10100  # c,c1,c1,hc
dihedral_coeff	10 ebt   -0.31900    0.44110   -0.71740    1.15380    0.84090   -0.91380    1.53000    1.42000  # c,c1,c1,o3e
dihedral_coeff	11 ebt    1.15380    0.84090   -0.91380   -0.31900    0.44110   -0.71740    1.53000    1.42000  # c,c1,c1,oc
dihedral_coeff	12 ebt    1.15380    0.84090   -0.91380   -0.31900    0.44110   -0.71740    1.53000    1.42000  # c,c1,c1,oh
dihedral_coeff	13 ebt    0.47410    1.26350    0.55760   -0.24560    1.05170   -0.77950    1.53000    1.42000  # c,c1,o3e,c1
dihedral_coeff	14 ebt    0.47410    1.26350    0.55760   -0.24560    1.05170   -0.77950    1.53000    1.42000  # c,c1,oc,c1
dihedral_coeff	15 ebt   -0.07320    0.00000    0.00000   -0.07320    0.00000    0.00000    1.53000    1.53000  # c,c3h,c3h,c1
dihedral_coeff	16 ebt    0.08140    0.05910    0.22190    0.24860    0.24220   -0.09250    1.53000    1.10100  # c,c3h,c3h,hc
dihedral_coeff	17 ebt   -0.31900    0.44110   -0.71740    1.15380    0.84090   -0.91380    1.53000    1.42000  # c,c3h,c3h,o3e
dihedral_coeff	18 ebt   -0.24560    1.05170   -0.77950    0.47410    1.26350    0.55760    1.53000    1.42000  # c,c3h,o3e,c3h
dihedral_coeff	19 ebt   -0.07320    0.00000    0.00000   -0.07320    0.00000    0.00000    1.53000    1.53000  # c1,c,c,c1
dihedral_coeff	20 ebt    0.24860    0.24220   -0.09250    0.08140    0.05910    0.22190    1.53000    1.10100  # c1,c,c,hc
dihedral_coeff	21 ebt   -0.07320    0.00000    0.00000   -0.07320    0.00000    0.00000    1.53000    1.53000  # c1,c,c1,c1
dihedral_coeff	22 ebt    0.24860    0.24220   -0.09250    0.08140    0.05910    0.22190    1.53000    1.10100  # c1,c,c1,hc
dihedral_coeff	23 ebt   -0.31900    0.44110   -0.71740    1.15380    0.84090   -0.91380    1.53000    1.42000  # c1,c,c1,o3e
dihedral_coeff	24 ebt   -0.31900    0.44110   -0.71740    1.15380    0.84090   -0.91380    1.53000    1.42000  # c1,c,c1,oc
dihedral_coeff	25 ebt   -0.07320    0.00000    0.00000   -0.07320    0.00000    0.00000    1.53000    1.53000  # c1,c,c3h,c3h
dihedral_coeff	26 ebt    0.24860    0.24220   -0.09250    0.08140    0.05910    0.22190    1.53000    1.10100  # c1,c,c3h,hc
dihedral_coeff	27 ebt   -0.31900    0.44110   -0.71740    1.15380    0.84090   -0.91380    1.53000    1.42000  # c1,c,c3h,o3e
dihedral_coeff	28 ebt   -0.07320    0.00000    0.00000   -0.07320    0.00000    0.00000    1.53000    1.53000  # c1,c1,c,c3h
dihedral_coeff	29 ebt    0.24860    0.24220   -0.09250    0.08140    0.05910    0.22190    1.53000    1.10100  # c1,c1,c,hc
dihedral_coeff	30 ebt   -0.07320    0.00000    0.00000   -0.07320    0.00000    0.00000    1.53000    1.53000  # c1,c1,c1,c1
dihedral_coeff	31 ebt   -0.07320    0.00000    0.00000   -0.07320    0.00000    0.00000    1.53000    1.53000  # c1,c1,c1,c3h
dihedral_coeff	32 ebt    0.24860    0.24220   -0.09250    0.08140    0.05910    0.22190    1.53000    1.10100  # c1,c1,c1,hc
dihedral_coeff	33 ebt   -0.31900    0.44110   -0.71740    1.15380    0.84090   -0.91380    1.53000    1.42000  # c1,c1,c1,o3e
dihedral_coeff	34 ebt   -0.31900    0.44110   -0.71740    1.15380    0.84090   -0.91380    1.53000    1.42000  # c1,c1,c1,oc
dihedral_coeff	35 ebt    1.15380    0.84090   -0.91380   -0.31900    0.44110   -0.71740    1.53000    1.42000  # c1,c1,c1,oh
dihedral_coeff	36 ebt   -0.07320    0.00000    0.00000   -0.07320    0.00000    0.00000    1.53000    1.53000  # c1,c1,c3h,c3h
dihedral_coeff	37 ebt    0.24860    0.24220   -0.09250    0.08140    0.05910    0.22190    1.53000    1.10100  # c1,c1,c3h,hc
dihedral_coeff	38 ebt   -0.31900    0.44110   -0.71740    1.15380    0.84090   -0.91380    1.53000    1.42000  # c1,c1,c3h,o3e
dihedral_coeff	39 ebt   -0.24560    1.05170   -0.77950    0.47410    1.26350    0.55760    1.53000    1.42000  # c1,c1,o3e,c1
dihedral_coeff	40 ebt   -0.24560    1.05170   -0.77950    0.47410    1.26350    0.55760    1.53000    1.42000  # c1,c1,oc,c1
dihedral_coeff	41 ebt    0.00000    0.00000    0.00000    0.00000    0.00000    0.00000    1.53000    0.96000  # c1,c1,oh,h
dihedral_coeff	42 ebt    0.24860    0.24220   -0.09250    0.08140    0.05910    0.22190    1.53000    1.10100  # c1,c3h,c3h,hc
dihedral_coeff	43 ebt   -0.31900    0.44110   -0.71740    1.15380    0.84090   -0.91380    1.53000    1.42000  # c1,c3h,c3h,o3e
dihedral_coeff	44 ebt   -0.24560    1.05170   -0.77950    0.47410    1.26350    0.55760    1.53000    1.42000  # c1,c3h,o3e,c3h
dihedral_coeff	45 ebt   -0.16200    0.15640   -1.14080   -0.60540    1.33390    0.96480    1.42000    1.10100  # c1,o3e,c1,hc
dihedral_coeff	46 ebt   -0.16200    0.15640   -1.14080   -0.60540    1.33390    0.96480    1.42000    1.10100  # c1,oc,c1,hc
dihedral_coeff	47 ebt    0.08140    0.05910    0.22190    0.24860    0.24220   -0.09250    1.53000    1.10100  # c3h,c,c1,hc
dihedral_coeff	48 ebt    0.08140    0.05910    0.22190    0.24860    0.24220   -0.09250    1.53000    1.10100  # c3h,c1,c1,hc
dihedral_coeff	49 ebt    0.08140    0.05910    0.22190    0.24860    0.24220   -0.09250    1.53000    1.10100  # c3h,c3h,c,hc
dihedral_coeff	50 ebt    0.08140    0.05910    0.22190    0.24860    0.24220   -0.09250    1.53000    1.10100  # c3h,c3h,c1,hc
dihedral_coeff	51 ebt   -0.60540    1.33390    0.96480   -0.16200    0.15640   -1.14080    1.42000    1.10100  # c3h,o3e,c3h,hc
dihedral_coeff	52 ebt    0.00000    0.00000    0.00000    0.00000    0.00000    0.00000    0.96000    1.10100  # h,oh,c1,hc
dihedral_coeff	53 ebt    0.21300    0.31200    0.07770    0.21300    0.31200    0.07770    1.10100    1.10100  # hc,c,c,hc
dihedral_coeff	54 ebt    0.21300    0.31200    0.07770    0.21300    0.31200    0.07770    1.10100    1.10100  # hc,c,c1,hc
dihedral_coeff	55 ebt    0.96810    0.95510    0.04360    0.59030    0.66690    0.85840    1.10100    1.42000  # hc,c,c1,o3e
dihedral_coeff	56 ebt    0.96810    0.95510    0.04360    0.59030    0.66690    0.85840    1.10100    1.42000  # hc,c,c1,oc
dihedral_coeff	57 ebt    0.21300    0.31200    0.07770    0.21300    0.31200    0.07770    1.10100    1.10100  # hc,c,c3h,hc
dihedral_coeff	58 ebt    0.96810    0.95510    0.04360    0.59030    0.66690    0.85840    1.10100    1.42000  # hc,c,c3h,o3e
dihedral_coeff	59 ebt    0.21300    0.31200    0.07770    0.21300    0.31200    0.07770    1.10100    1.10100  # hc,c1,c1,hc
dihedral_coeff	60 ebt    0.96810    0.95510    0.04360    0.59030    0.66690    0.85840    1.10100    1.42000  # hc,c1,c1,o3e
dihedral_coeff	61 ebt    0.96810    0.95510    0.04360    0.59030    0.66690    0.85840    1.10100    1.42000  # hc,c1,c1,oc
dihedral_coeff	62 ebt    0.59030    0.66690    0.85840    0.96810    0.95510    0.04360    1.10100    1.42000  # hc,c1,c1,oh
dihedral_coeff	63 ebt    0.21300    0.31200    0.07770    0.21300    0.31200    0.07770    1.10100    1.10100  # hc,c1,c3h,hc
dihedral_coeff	64 ebt    0.96810    0.95510    0.04360    0.59030    0.66690    0.85840    1.10100    1.42000  # hc,c1,c3h,o3e
dihedral_coeff	65 ebt    0.21300    0.31200    0.07770    0.21300    0.31200    0.07770    1.10100    1.10100  # hc,c3h,c3h,hc
dihedral_coeff	66 ebt    0.96810    0.95510    0.04360    0.59030    0.66690    0.85840    1.10100    1.42000  # hc,c3h,c3h,o3e
dihedral_coeff	67 ebt    1.01650    0.75530   -0.46090    1.01650    0.75530   -0.46090    1.42000    1.42000  # oc,c1,c1,oc
dihedral_coeff	68 ebt    1.01650    0.75530   -0.46090    1.01650    0.75530   -0.46090    1.42000    1.42000  # oc,c1,c1,oh

# AngleTorsion Coeffs

dihedral_coeff	 1 at    0.38860   -0.31390    0.13890    0.38860   -0.31390    0.13890  112.67000  112.67000  # c,c,c1,c1
dihedral_coeff	 2 at    0.31130    0.45160   -0.19880   -0.24540    0.00000   -0.11360  112.67000  110.77000  # c,c,c1,hc
dihedral_coeff	 3 at    0.96720   -0.75660   -1.23310    0.56230   -0.30410   -0.40150  112.67000  111.27000  # c,c,c1,oc
dihedral_coeff	 4 at    0.38860   -0.31390    0.13890    0.38860   -0.31390    0.13890  112.67000  112.67000  # c,c1,c,c1
dihedral_coeff	 5 at    0.31130    0.45160   -0.19880   -0.24540    0.00000   -0.11360  112.67000  110.77000  # c,c1,c,hc
dihedral_coeff	 6 at    0.38860   -0.31390    0.13890    0.38860   -0.31390    0.13890  112.67000  112.67000  # c,c1,c1,c
dihedral_coeff	 7 at    0.38860   -0.31390    0.13890    0.38860   -0.31390    0.13890  112.67000  112.67000  # c,c1,c1,c1
dihedral_coeff	 8 at    0.38860   -0.31390    0.13890    0.38860   -0.31390    0.13890  112.67000  112.67000  # c,c1,c1,c3h
dihedral_coeff	 9 at    0.31130    0.45160   -0.19880   -0.24540    0.00000   -0.11360  112.67000  110.77000  # c,c1,c1,hc
dihedral_coeff	10 at    0.56230   -0.30410   -0.40150    0.96720   -0.75660   -1.23310  112.67000  111.27000  # c,c1,c1,o3e
dihedral_coeff	11 at    0.96720   -0.75660   -1.23310    0.56230   -0.30410   -0.40150  112.67000  111.27000  # c,c1,c1,oc
dihedral_coeff	12 at    0.96720   -0.75660   -1.23310    0.56230   -0.30410   -0.40150  112.67000  111.27000  # c,c1,c1,oh
dihedral_coeff	13 at    0.56760    0.94500    0.07030   -2.74660    1.48770   -0.89550  111.27000  104.50000  # c,c1,o3e,c1
dihedral_coeff	14 at    0.56760    0.94500    0.07030   -2.74660    1.48770   -0.89550  111.27000  104.50000  # c,c1,oc,c1
dihedral_coeff	15 at    0.38860   -0.31390    0.13890    0.38860   -0.31390    0.13890  112.67000  112.67000  # c,c3h,c3h,c1
dihedral_coeff	16 at    0.31130    0.45160   -0.19880   -0.24540    0.00000   -0.11360  112.67000  110.77000  # c,c3h,c3h,hc
dihedral_coeff	17 at    0.56230   -0.30410   -0.40150    0.96720   -0.75660   -1.23310  112.67000  111.27000  # c,c3h,c3h,o3e
dihedral_coeff	18 at   -2.74660    1.48770   -0.89550    0.56760    0.94500    0.07030  111.27000  104.50000  # c,c3h,o3e,c3h
dihedral_coeff	19 at    0.38860   -0.31390    0.13890    0.38860   -0.31390    0.13890  112.67000  112.67000  # c1,c,c,c1
dihedral_coeff	20 at   -0.24540    0.00000   -0.11360    0.31130    0.45160   -0.19880  112.67000  110.77000  # c1,c,c,hc
dihedral_coeff	21 at    0.38860   -0.31390    0.13890    0.38860   -0.31390    0.13890  112.67000  112.67000  # c1,c,c1,c1
dihedral_coeff	22 at   -0.24540    0.00000   -0.11360    0.31130    0.45160   -0.19880  112.67000  110.77000  # c1,c,c1,hc
dihedral_coeff	23 at    0.56230   -0.30410   -0.40150    0.96720   -0.75660   -1.23310  112.67000  111.27000  # c1,c,c1,o3e
dihedral_coeff	24 at    0.56230   -0.30410   -0.40150    0.96720   -0.75660   -1.23310  112.67000  111.27000  # c1,c,c1,oc
dihedral_coeff	25 at    0.38860   -0.31390    0.13890    0.38860   -0.31390    0.13890  112.67000  112.67000  # c1,c,c3h,c3h
dihedral_coeff	26 at   -0.24540    0.00000   -0.11360    0.31130    0.45160   -0.19880  112.67000  110.77000  # c1,c,c3h,hc
dihedral_coeff	27 at    0.56230   -0.30410   -0.40150    0.96720   -0.75660   -1.23310  112.67000  111.27000  # c1,c,c3h,o3e
dihedral_coeff	28 at    0.38860   -0.31390    0.13890    0.38860   -0.31390    0.13890  112.67000  112.67000  # c1,c1,c,c3h
dihedral_coeff	29 at   -0.24540    0.00000   -0.11360    0.31130    0.45160   -0.19880  112.67000  110.77000  # c1,c1,c,hc
dihedral_coeff	30 at    0.38860   -0.31390    0.13890    0.38860   -0.31390    0.13890  112.67000  112.67000  # c1,c1,c1,c1
dihedral_coeff	31 at    0.38860   -0.31390    0.13890    0.38860   -0.31390    0.13890  112.67000  112.67000  # c1,c1,c1,c3h
dihedral_coeff	32 at   -0.24540    0.00000   -0.11360    0.31130    0.45160   -0.19880  112.67000  110.77000  # c1,c1,c1,hc
dihedral_coeff	33 at    0.56230   -0.30410   -0.40150    0.96720   -0.75660   -1.23310  112.67000  111.27000  # c1,c1,c1,o3e
dihedral_coeff	34 at    0.56230   -0.30410   -0.40150    0.96720   -0.75660   -1.23310  112.67000  111.27000  # c1,c1,c1,oc
dihedral_coeff	35 at    0.96720   -0.75660   -1.23310    0.56230   -0.30410   -0.40150  112.67000  111.27000  # c1,c1,c1,oh
dihedral_coeff	36 at    0.38860   -0.31390    0.13890    0.38860   -0.31390    0.13890  112.67000  112.67000  # c1,c1,c3h,c3h
dihedral_coeff	37 at   -0.24540    0.00000   -0.11360    0.31130    0.45160   -0.19880  112.67000  110.77000  # c1,c1,c3h,hc
dihedral_coeff	38 at    0.56230   -0.30410   -0.40150    0.96720   -0.75660   -1.23310  112.67000  111.27000  # c1,c1,c3h,o3e
dihedral_coeff	39 at   -2.74660    1.48770   -0.89550    0.56760    0.94500    0.07030  111.27000  104.50000  # c1,c1,o3e,c1
dihedral_coeff	40 at   -2.74660    1.48770   -0.89550    0.56760    0.94500    0.07030  111.27000  104.50000  # c1,c1,oc,c1
dihedral_coeff	41 at    0.00000    0.00000    0.00000    0.00000    0.00000    0.00000  111.27000  109.00000  # c1,c1,oh,h
dihedral_coeff	42 at   -0.24540    0.00000   -0.11360    0.31130    0.45160   -0.19880  112.67000  110.77000  # c1,c3h,c3h,hc
dihedral_coeff	43 at    0.56230   -0.30410   -0.40150    0.96720   -0.75660   -1.23310  112.67000  111.27000  # c1,c3h,c3h,o3e
dihedral_coeff	44 at   -2.74660    1.48770   -0.89550    0.56760    0.94500    0.07030  111.27000  104.50000  # c1,c3h,o3e,c3h
dihedral_coeff	45 at   -0.77770    0.43400   -0.66530   -1.82340    1.63930    0.51440  104.50000  108.72800  # c1,o3e,c1,hc
dihedral_coeff	46 at   -0.77770    0.43400   -0.66530   -1.82340    1.63930    0.51440  104.50000  108.72800  # c1,oc,c1,hc
dihedral_coeff	47 at    0.31130    0.45160   -0.19880   -0.24540    0.00000   -0.11360  112.67000  110.77000  # c3h,c,c1,hc
dihedral_coeff	48 at    0.31130    0.45160   -0.19880   -0.24540    0.00000   -0.11360  112.67000  110.77000  # c3h,c1,c1,hc
dihedral_coeff	49 at    0.31130    0.45160   -0.19880   -0.24540    0.00000   -0.11360  112.67000  110.77000  # c3h,c3h,c,hc
dihedral_coeff	50 at    0.31130    0.45160   -0.19880   -0.24540    0.00000   -0.11360  112.67000  110.77000  # c3h,c3h,c1,hc
dihedral_coeff	51 at   -1.82340    1.63930    0.51440   -0.77770    0.43400   -0.66530  104.50000  108.72800  # c3h,o3e,c3h,hc
dihedral_coeff	52 at    0.00000    0.00000    0.00000    0.00000    0.00000    0.00000  109.00000  108.72800  # h,oh,c1,hc
dihedral_coeff	53 at   -0.80850    0.55690   -0.24660   -0.80850    0.55690   -0.24660  110.77000  110.77000  # hc,c,c,hc
dihedral_coeff	54 at   -0.80850    0.55690   -0.24660   -0.80850    0.55690   -0.24660  110.77000  110.77000  # hc,c,c1,hc
dihedral_coeff	55 at    2.36680    2.49200   -1.01220   -0.18920    0.49180    0.72730  110.77000  111.27000  # hc,c,c1,o3e
dihedral_coeff	56 at    2.36680    2.49200   -1.01220   -0.18920    0.49180    0.72730  110.77000  111.27000  # hc,c,c1,oc
dihedral_coeff	57 at   -0.80850    0.55690   -0.24660   -0.80850    0.55690   -0.24660  110.77000  110.77000  # hc,c,c3h,hc
dihedral_coeff	58 at    2.36680    2.49200   -1.01220   -0.18920    0.49180    0.72730  110.77000  111.27000  # hc,c,c3h,o3e
dihedral_coeff	59 at   -0.80850    0.55690   -0.24660   -0.80850    0.55690   -0.24660  110.77000  110.77000  # hc,c1,c1,hc
dihedral_coeff	60 at    2.36680    2.49200   -1.01220   -0.18920    0.49180    0.72730  110.77000  111.27000  # hc,c1,c1,o3e
dihedral_coeff	61 at    2.36680    2.49200   -1.01220   -0.18920    0.49180    0.72730  110.77000  111.27000  # hc,c1,c1,oc
dihedral_coeff	62 at   -0.18920    0.49180    0.72730    2.36680    2.49200   -1.01220  110.77000  111.27000  # hc,c1,c1,oh
dihedral_coeff	63 at   -0.80850    0.55690   -0.24660   -0.80850    0.55690   -0.24660  110.77000  110.77000  # hc,c1,c3h,hc
dihedral_coeff	64 at    2.36680    2.49200   -1.01220   -0.18920    0.49180    0.72730  110.77000  111.27000  # hc,c1,c3h,o3e
dihedral_coeff	65 at   -0.80850    0.55690   -0.24660   -0.80850    0.55690   -0.24660  110.77000  110.77000  # hc,c3h,c3h,hc
dihedral_coeff	66 at    2.36680    2.49200   -1.01220   -0.18920    0.49180    0.72730  110.77000  111.27000  # hc,c3h,c3h,o3e
dihedral_coeff	67 at    0.55110    0.97370   -0.66730    0.55110    0.97370   -0.66730  111.27000  111.27000  # oc,c1,c1,oc
dihedral_coeff	68 at    0.55110    0.97370   -0.66730    0.55110    0.97370   -0.66730  111.27000  111.27000  # oc,c1,c1,oh

# AngleAngleTorsion Coeffs

dihedral_coeff	 1 aat  -22.04500  112.67000  112.67000  # c,c,c1,c1
dihedral_coeff	 2 aat  -16.16400  112.67000  110.77000  # c,c,c1,hc
dihedral_coeff	 3 aat  -29.04200  112.67000  111.27000  # c,c,c1,oc
dihedral_coeff	 4 aat  -22.04500  112.67000  112.67000  # c,c1,c,c1
dihedral_coeff	 5 aat  -16.16400  112.67000  110.77000  # c,c1,c,hc
dihedral_coeff	 6 aat  -22.04500  112.67000  112.67000  # c,c1,c1,c
dihedral_coeff	 7 aat  -22.04500  112.67000  112.67000  # c,c1,c1,c1
dihedral_coeff	 8 aat  -22.04500  112.67000  112.67000  # c,c1,c1,c3h
dihedral_coeff	 9 aat  -16.16400  112.67000  110.77000  # c,c1,c1,hc
dihedral_coeff	10 aat  -29.04200  112.67000  111.27000  # c,c1,c1,o3e
dihedral_coeff	11 aat  -29.04200  112.67000  111.27000  # c,c1,c1,oc
dihedral_coeff	12 aat  -29.04200  112.67000  111.27000  # c,c1,c1,oh
dihedral_coeff	13 aat  -19.00590  111.27000  104.50000  # c,c1,o3e,c1
dihedral_coeff	14 aat  -19.00590  111.27000  104.50000  # c,c1,oc,c1
dihedral_coeff	15 aat  -22.04500  112.67000  112.67000  # c,c3h,c3h,c1
dihedral_coeff	16 aat  -16.16400  112.67000  110.77000  # c,c3h,c3h,hc
dihedral_coeff	17 aat  -29.04200  112.67000  111.27000  # c,c3h,c3h,o3e
dihedral_coeff	18 aat  -19.00590  111.27000  104.50000  # c,c3h,o3e,c3h
dihedral_coeff	19 aat  -22.04500  112.67000  112.67000  # c1,c,c,c1
dihedral_coeff	20 aat  -16.16400  112.67000  110.77000  # c1,c,c,hc
dihedral_coeff	21 aat  -22.04500  112.67000  112.67000  # c1,c,c1,c1
dihedral_coeff	22 aat  -16.16400  112.67000  110.77000  # c1,c,c1,hc
dihedral_coeff	23 aat  -29.04200  112.67000  111.27000  # c1,c,c1,o3e
dihedral_coeff	24 aat  -29.04200  112.67000  111.27000  # c1,c,c1,oc
dihedral_coeff	25 aat  -22.04500  112.67000  112.67000  # c1,c,c3h,c3h
dihedral_coeff	26 aat  -16.16400  112.67000  110.77000  # c1,c,c3h,hc
dihedral_coeff	27 aat  -29.04200  112.67000  111.27000  # c1,c,c3h,o3e
dihedral_coeff	28 aat  -22.04500  112.67000  112.67000  # c1,c1,c,c3h
dihedral_coeff	29 aat  -16.16400  112.67000  110.77000  # c1,c1,c,hc
dihedral_coeff	30 aat  -22.04500  112.67000  112.67000  # c1,c1,c1,c1
dihedral_coeff	31 aat  -22.04500  112.67000  112.67000  # c1,c1,c1,c3h
dihedral_coeff	32 aat  -16.16400  112.67000  110.77000  # c1,c1,c1,hc
dihedral_coeff	33 aat  -29.04200  112.67000  111.27000  # c1,c1,c1,o3e
dihedral_coeff	34 aat  -29.04200  112.67000  111.27000  # c1,c1,c1,oc
dihedral_coeff	35 aat  -29.04200  112.67000  111.27000  # c1,c1,c1,oh
dihedral_coeff	36 aat  -22.04500  112.67000  112.67000  # c1,c1,c3h,c3h
dihedral_coeff	37 aat  -16.16400  112.67000  110.77000  # c1,c1,c3h,hc
dihedral_coeff	38 aat  -29.04200  112.67000  111.27000  # c1,c1,c3h,o3e
dihedral_coeff	39 aat  -19.00590  111.27000  104.50000  # c1,c1,o3e,c1
dihedral_coeff	40 aat  -19.00590  111.27000  104.50000  # c1,c1,oc,c1
dihedral_coeff	41 aat    0.00000  111.27000  109.00000  # c1,c1,oh,h
dihedral_coeff	42 aat  -16.16400  112.67000  110.77000  # c1,c3h,c3h,hc
dihedral_coeff	43 aat  -29.04200  112.67000  111.27000  # c1,c3h,c3h,o3e
dihedral_coeff	44 aat  -19.00590  111.27000  104.50000  # c1,c3h,o3e,c3h
dihedral_coeff	45 aat  -16.44380  104.50000  108.72800  # c1,o3e,c1,hc
dihedral_coeff	46 aat  -16.44380  104.50000  108.72800  # c1,oc,c1,hc
dihedral_coeff	47 aat  -16.16400  112.67000  110.77000  # c3h,c,c1,hc
dihedral_coeff	48 aat  -16.16400  112.67000  110.77000  # c3h,c1,c1,hc
dihedral_coeff	49 aat  -16.16400  112.67000  110.77000  # c3h,c3h,c,hc
dihedral_coeff	50 aat  -16.16400  112.67000  110.77000  # c3h,c3h,c1,hc
dihedral_coeff	51 aat  -16.44380  104.50000  108.72800  # c3h,o3e,c3h,hc
dihedral_coeff	52 aat    0.00000  109.00000  108.72800  # h,oh,c1,hc
dihedral_coeff	53 aat  -12.56400  110.77000  110.77000  # hc,c,c,hc
dihedral_coeff	54 aat  -12.56400  110.77000  110.77000  # hc,c,c1,hc
dihedral_coeff	55 aat  -20.20060  110.77000  111.27000  # hc,c,c1,o3e
dihedral_coeff	56 aat  -20.20060  110.77000  111.27000  # hc,c,c1,oc
dihedral_coeff	57 aat  -12.56400  110.77000  110.77000  # hc,c,c3h,hc
dihedral_coeff	58 aat  -20.20060  110.77000  111.27000  # hc,c,c3h,o3e
dihedral_coeff	59 aat  -12.56400  110.77000  110.77000  # hc,c1,c1,hc
dihedral_coeff	60 aat  -20.20060  110.77000  111.27000  # hc,c1,c1,o3e
dihedral_coeff	61 aat  -20.20060  110.77000  111.27000  # hc,c1,c1,oc
dihedral_coeff	62 aat  -20.20060  110.77000  111.27000  # hc,c1,c1,oh
dihedral_coeff	63 aat  -12.56400  110.77000  110.77000  # hc,c1,c3h,hc
dihedral_coeff	64 aat  -20.20060  110.77000  111.27000  # hc,c1,c3h,o3e
dihedral_coeff	65 aat  -12.56400  110.77000  110.77000  # hc,c3h,c3h,hc
dihedral_coeff	66 aat  -20.20060  110.77000  111.27000  # hc,c3h,c3h,o3e
dihedral_coeff	67 aat  -14.04840  111.27000  111.27000  # oc,c1,c1,oc
dihedral_coeff	68 aat  -14.04840  111.27000  111.27000  # oc,c1,c1,oh

# BondBond13 Coeffs

dihedral_coeff	 1 bb13    0.00000    1.53000    1.53000  # c,c,c1,c1
dihedral_coeff	 2 bb13    0.00000    1.53000    1.10100  # c,c,c1,hc
dihedral_coeff	 3 bb13    0.00000    1.53000    1.42000  # c,c,c1,oc
dihedral_coeff	 4 bb13    0.00000    1.53000    1.53000  # c,c1,c,c1
dihedral_coeff	 5 bb13    0.00000    1.53000    1.10100  # c,c1,c,hc
dihedral_coeff	 6 bb13    0.00000    1.53000    1.53000  # c,c1,c1,c
dihedral_coeff	 7 bb13    0.00000    1.53000    1.53000  # c,c1,c1,c1
dihedral_coeff	 8 bb13    0.00000    1.53000    1.53000  # c,c1,c1,c3h
dihedral_coeff	 9 bb13    0.00000    1.53000    1.10100  # c,c1,c1,hc
dihedral_coeff	10 bb13    0.00000    1.53000    1.42000  # c,c1,c1,o3e
dihedral_coeff	11 bb13    0.00000    1.53000    1.42000  # c,c1,c1,oc
dihedral_coeff	12 bb13    0.00000    1.53000    1.42000  # c,c1,c1,oh
dihedral_coeff	13 bb13    0.00000    1.53000    1.42000  # c,c1,o3e,c1
dihedral_coeff	14 bb13    0.00000    1.53000    1.42000  # c,c1,oc,c1
dihedral_coeff	15 bb13    0.00000    1.53000    1.53000  # c,c3h,c3h,c1
dihedral_coeff	16 bb13    0.00000    1.53000    1.10100  # c,c3h,c3h,hc
dihedral_coeff	17 bb13    0.00000    1.53000    1.42000  # c,c3h,c3h,o3e
dihedral_coeff	18 bb13    0.00000    1.53000    1.42000  # c,c3h,o3e,c3h
dihedral_coeff	19 bb13    0.00000    1.53000    1.53000  # c1,c,c,c1
dihedral_coeff	20 bb13    0.00000    1.53000    1.10100  # c1,c,c,hc
dihedral_coeff	21 bb13    0.00000    1.53000    1.53000  # c1,c,c1,c1
dihedral_coeff	22 bb13    0.00000    1.53000    1.10100  # c1,c,c1,hc
dihedral_coeff	23 bb13    0.00000    1.53000    1.42000  # c1,c,c1,o3e
dihedral_coeff	24 bb13    0.00000    1.53000    1.42000  # c1,c,c1,oc
dihedral_coeff	25 bb13    0.00000    1.53000    1.53000  # c1,c,c3h,c3h
dihedral_coeff	26 bb13    0.00000    1.53000    1.10100  # c1,c,c3h,hc
dihedral_coeff	27 bb13    0.00000    1.53000    1.42000  # c1,c,c3h,o3e
dihedral_coeff	28 bb13    0.00000    1.53000    1.53000  # c1,c1,c,c3h
dihedral_coeff	29 bb13    0.00000    1.53000    1.10100  # c1,c1,c,hc
dihedral_coeff	30 bb13    0.00000    1.53000    1.53000  # c1,c1,c1,c1
dihedral_coeff	31 bb13    0.00000    1.53000    1.53000  # c1,c1,c1,c3h
dihedral_coeff	32 bb13    0.00000    1.53000    1.10100  # c1,c1,c1,hc
dihedral_coeff	33 bb13    0.00000    1.53000    1.42000  # c1,c1,c1,o3e
dihedral_coeff	34 bb13    0.00000    1.53000    1.42000  # c1,c1,c1,oc
dihedral_coeff	35 bb13    0.00000    1.53000    1.42000  # c1,c1,c1,oh
dihedral_coeff	36 bb13    0.00000    1.53000    1.53000  # c1,c1,c3h,c3h
dihedral_coeff	37 bb13    0.00000    1.53000    1.10100  # c1,c1,c3h,hc
dihedral_coeff	38 bb13    0.00000    1.53000    1.42000  # c1,c1,c3h,o3e
dihedral_coeff	39 bb13    0.00000    1.53000    1.42000  # c1,c1,o3e,c1
dihedral_coeff	40 bb13    0.00000    1.53000    1.42000  # c1,c1,oc,c1
dihedral_coeff	41 bb13    0.00000    1.53000    0.96000  # c1,c1,oh,h
dihedral_coeff	42 bb13    0.00000    1.53000    1.10100  # c1,c3h,c3h,hc
dihedral_coeff	43 bb13    0.00000    1.53000    1.42000  # c1,c3h,c3h,o3e
dihedral_coeff	44 bb13    0.00000    1.53000    1.42000  # c1,c3h,o3e,c3h
dihedral_coeff	45 bb13    0.00000    1.42000    1.10100  # c1,o3e,c1,hc
dihedral_coeff	46 bb13    0.00000    1.42000    1.10100  # c1,oc,c1,hc
dihedral_coeff	47 bb13    0.00000    1.53000    1.10100  # c3h,c,c1,hc
dihedral_coeff	48 bb13    0.00000    1.53000    1.10100  # c3h,c1,c1,hc
dihedral_coeff	49 bb13    0.00000    1.53000    1.10100  # c3h,c3h,c,hc
dihedral_coeff	50 bb13    0.00000    1.53000    1.10100  # c3h,c3h,c1,hc
dihedral_coeff	51 bb13    0.00000    1.42000    1.10100  # c3h,o3e,c3h,hc
dihedral_coeff	52 bb13    0.00000    0.96000    1.10100  # h,oh,c1,hc
dihedral_coeff	53 bb13    0.00000    1.10100    1.10100  # hc,c,c,hc
dihedral_coeff	54 bb13    0.00000    1.10100    1.10100  # hc,c,c1,hc
dihedral_coeff	55 bb13    0.00000    1.10100    1.42000  # hc,c,c1,o3e
dihedral_coeff	56 bb13    0.00000    1.10100    1.42000  # hc,c,c1,oc
dihedral_coeff	57 bb13    0.00000    1.10100    1.10100  # hc,c,c3h,hc
dihedral_coeff	58 bb13    0.00000    1.10100    1.42000  # hc,c,c3h,o3e
dihedral_coeff	59 bb13    0.00000    1.10100    1.10100  # hc,c1,c1,hc
dihedral_coeff	60 bb13    0.00000    1.10100    1.42000  # hc,c1,c1,o3e
dihedral_coeff	61 bb13    0.00000    1.10100    1.42000  # hc,c1,c1,oc
dihedral_coeff	62 bb13    0.00000    1.10100    1.42000  # hc,c1,c1,oh
dihedral_coeff	63 bb13    0.00000    1.10100    1.10100  # hc,c1,c3h,hc
dihedral_coeff	64 bb13    0.00000    1.10100    1.42000  # hc,c1,c3h,o3e
dihedral_coeff	65 bb13    0.00000    1.10100    1.10100  # hc,c3h,c3h,hc
dihedral_coeff	66 bb13    0.00000    1.10100    1.42000  # hc,c3h,c3h,o3e
dihedral_coeff	67 bb13    0.00000    1.42000    1.42000  # oc,c1,c1,oc
dihedral_coeff	68 bb13    0.00000    1.42000    1.42000  # oc,c1,c1,oh

# Improper Coeffs

improper_coeff	 1    0.00000    0.00000  # c,c,c1,hc
improper_coeff	 2    0.00000    0.00000  # c,c,hc,c1
improper_coeff	 3    0.00000    0.00000  # c,c,hc,hc
improper_coeff	 4    0.00000    0.00000  # c,c1,c1,hc
improper_coeff	 5    0.00000    0.00000  # c,c1,hc,c3h
improper_coeff	 6    0.00000    0.00000  # c,c1,hc,hc
improper_coeff	 7    0.00000    0.00000  # c,c3h,hc,hc
improper_coeff	 8    0.00000    0.00000  # c1,c,c,c1
improper_coeff	 9    0.00000    0.00000  # c1,c,c,hc
improper_coeff	10    0.00000    0.00000  # c1,c,c1,c1
improper_coeff	11    0.00000    0.00000  # c1,c,c1,hc
improper_coeff	12    0.00000    0.00000  # c1,c,c1,oc
improper_coeff	13    0.00000    0.00000  # c1,c,hc,c1
improper_coeff	14    0.00000    0.00000  # c1,c,hc,oc
improper_coeff	15    0.00000    0.00000  # c1,c,o3e,c1
improper_coeff	16    0.00000    0.00000  # c1,c,o3e,hc
improper_coeff	17    0.00000    0.00000  # c1,c,oc,c1
improper_coeff	18    0.00000    0.00000  # c1,c,oc,hc
improper_coeff	19    0.00000    0.00000  # c1,c1,c1,c1
improper_coeff	20    0.00000    0.00000  # c1,c1,c1,c3h
improper_coeff	21    0.00000    0.00000  # c1,c1,c1,hc
improper_coeff	22    0.00000    0.00000  # c1,c1,c1,o3e
improper_coeff	23    0.00000    0.00000  # c1,c1,c1,oc
improper_coeff	24    0.00000    0.00000  # c1,c1,c1,oh
improper_coeff	25    0.00000    0.00000  # c1,c1,c3h,hc
improper_coeff	26    0.00000    0.00000  # c1,c1,hc,c3h
improper_coeff	27    0.00000    0.00000  # c1,c1,hc,o3e
improper_coeff	28    0.00000    0.00000  # c1,c1,hc,oc
improper_coeff	29    0.00000    0.00000  # c1,c1,hc,oh
improper_coeff	30    0.00000    0.00000  # c1,c1,o3e,hc
improper_coeff	31    0.00000    0.00000  # c1,c1,oc,hc
improper_coeff	32    0.00000    0.00000  # c3h,c,hc,c3h
improper_coeff	33    0.00000    0.00000  # c3h,c,o3e,c3h
improper_coeff	34    0.00000    0.00000  # c3h,c,o3e,hc
improper_coeff	35    0.00000    0.00000  # c3h,c1,c3h,hc
improper_coeff	36    0.00000    0.00000  # c3h,c1,c3h,o3e
improper_coeff	37    0.00000    0.00000  # c3h,c1,o3e,hc
improper_coeff	38    0.00000    0.00000  # c3h,c3h,o3e,hc

# AngleAngle Coeffs

improper_coeff	 1 aa    0.00000   -1.31990    0.00000  112.67000  110.77000  110.77000  # c,c,c1,hc
improper_coeff	 2 aa    0.00000   -1.31990    0.00000  110.77000  112.67000  110.77000  # c,c,hc,c1
improper_coeff	 3 aa    0.00000   -0.48250    0.00000  110.77000  110.77000  107.66000  # c,c,hc,hc
improper_coeff	 4 aa   -1.31990   -1.31990    0.11840  112.67000  110.77000  110.77000  # c,c1,c1,hc
improper_coeff	 5 aa    0.11840    0.00000   -1.31990  110.77000  112.67000  110.77000  # c,c1,hc,c3h
improper_coeff	 6 aa    0.27380   -0.48250    0.27380  110.77000  110.77000  107.66000  # c,c1,hc,hc
improper_coeff	 7 aa    0.00000   -0.48250    0.00000  110.77000  110.77000  107.66000  # c,c3h,hc,hc
improper_coeff	 8 aa    0.00000    0.00000   -0.17290  112.67000  112.67000  112.67000  # c1,c,c,c1
improper_coeff	 9 aa    0.00000    0.00000    0.11840  112.67000  110.77000  110.77000  # c1,c,c,hc
improper_coeff	10 aa    0.00000   -0.17290    0.00000  112.67000  112.67000  112.67000  # c1,c,c1,c1
improper_coeff	11 aa    0.00000   -1.31990    0.00000  112.67000  110.77000  110.77000  # c1,c,c1,hc
improper_coeff	12 aa    0.00000   -0.83300    0.00000  112.67000  111.27000  111.27000  # c1,c,c1,oc
improper_coeff	13 aa    0.00000   -1.31990    0.00000  110.77000  112.67000  110.77000  # c1,c,hc,c1
improper_coeff	14 aa    0.00000    2.59260    0.00000  110.77000  111.27000  108.72800  # c1,c,hc,oc
improper_coeff	15 aa    0.00000   -0.83300   -0.83300  111.27000  112.67000  111.27000  # c1,c,o3e,c1
improper_coeff	16 aa    0.00000    2.59260    3.91770  111.27000  110.77000  108.72800  # c1,c,o3e,hc
improper_coeff	17 aa    0.00000   -0.83300    0.00000  111.27000  112.67000  111.27000  # c1,c,oc,c1
improper_coeff	18 aa    0.00000    2.59260    0.00000  111.27000  110.77000  108.72800  # c1,c,oc,hc
improper_coeff	19 aa   -0.17290   -0.17290   -0.17290  112.67000  112.67000  112.67000  # c1,c1,c1,c1
improper_coeff	20 aa   -0.17290   -0.17290   -0.17290  112.67000  112.67000  112.67000  # c1,c1,c1,c3h
improper_coeff	21 aa   -1.31990   -1.31990    0.11840  112.67000  110.77000  110.77000  # c1,c1,c1,hc
improper_coeff	22 aa   -0.83300   -0.83300   -3.57440  112.67000  111.27000  111.27000  # c1,c1,c1,o3e
improper_coeff	23 aa   -0.83300   -0.83300   -3.57440  112.67000  111.27000  111.27000  # c1,c1,c1,oc
improper_coeff	24 aa    0.00000    0.00000   -3.57440  112.67000  111.27000  111.27000  # c1,c1,c1,oh
improper_coeff	25 aa   -1.31990    0.00000    0.11840  112.67000  110.77000  110.77000  # c1,c1,c3h,hc
improper_coeff	26 aa    0.11840    0.00000   -1.31990  110.77000  112.67000  110.77000  # c1,c1,hc,c3h
improper_coeff	27 aa    3.91770    2.59260    0.16890  110.77000  111.27000  108.72800  # c1,c1,hc,o3e
improper_coeff	28 aa    3.91770    2.59260    0.16890  110.77000  111.27000  108.72800  # c1,c1,hc,oc
improper_coeff	29 aa    0.00000    0.00000    0.16890  110.77000  111.27000  108.72800  # c1,c1,hc,oh
improper_coeff	30 aa    0.16890    2.59260    3.91770  111.27000  110.77000  108.72800  # c1,c1,o3e,hc
improper_coeff	31 aa    0.16890    2.59260    3.91770  111.27000  110.77000  108.72800  # c1,c1,oc,hc
improper_coeff	32 aa    0.11840    0.00000    0.00000  110.77000  112.67000  110.77000  # c3h,c,hc,c3h
improper_coeff	33 aa   -3.57440    0.00000   -0.83300  111.27000  112.67000  111.27000  # c3h,c,o3e,c3h
improper_coeff	34 aa    0.00000    2.59260    3.91770  111.27000  110.77000  108.72800  # c3h,c,o3e,hc
improper_coeff	35 aa   -1.31990    0.00000    0.11840  112.67000  110.77000  110.77000  # c3h,c1,c3h,hc
improper_coeff	36 aa   -0.83300    0.00000   -3.57440  112.67000  111.27000  111.27000  # c3h,c1,c3h,o3e
improper_coeff	37 aa    0.16890    2.59260    3.91770  111.27000  110.77000  108.72800  # c3h,c1,o3e,hc
improper_coeff	38 aa    0.00000    2.59260    0.00000  111.27000  110.77000  108.72800  # c3h,c3h,o3e,hc

# ------------------------------- OPT Section -------------------------------
minimize 1.0e-5 1.0e-7 100000 400000
PPPM initialization ...
  using 12-bit tables for long-range coulomb (../kspace.cpp:342)
  G vector (1/distance) = 0.18266917
  grid = 10 10 10
  stencil order = 5
  estimated absolute RMS force accuracy = 0.02230145
  estimated relative force accuracy = 6.7160156e-05
  using double precision KISS FFT
  3d grid and FFT values/proc = 1350 200
Generated 28 of 28 mixed pair_coeff terms from sixthpower/geometric mixing rule
Neighbor list info ...
  update: every = 1 steps, delay = 0 steps, check = yes
  max neighbors/atom: 2000, page size: 100000
  master list distance cutoff = 12
  ghost atom cutoff = 12
  binsize = 6, bins = 8 8 8
  1 neighbor lists, perpetual/occasional/extra = 1 0 0
  (1) pair lj/class2/coul/long, perpetual
      attributes: half, newton on
      pair build: half/bin/newton
      stencil: half/bin/3d
      bin: standard
Per MPI rank memory allocation (min/avg/max) = 29.8 | 29.94 | 30.21 Mbytes
   Step          Temp          E_pair         E_mol          TotEng         Press     
         0   0             -7.6147155      44405.895      44398.28      -2935.6138    
        19   0             -8.0793958      44350.324      44342.245     -2946.7336    
Loop time of 2.17283 on 6 procs for 19 steps with 3976 atoms

99.2% CPU use with 6 MPI tasks x no OpenMP threads

Minimization stats:
  Stopping criterion = energy tolerance
  Energy initial, next-to-last, final = 
      44398.2801680695   44342.5083082018   44342.2449075989
  Force two-norm initial, final = 7042.9679 4969.4307
  Force max component initial, final = 2509.6584 2137.9497
  Final line search alpha, max atom move = 3.4179938e-08 7.3074988e-05
  Iterations, force evaluations = 19 268

MPI task timing breakdown:
Section |  min time  |  avg time  |  max time  |%varavg| %total
---------------------------------------------------------------
Pair    | 0.44282    | 0.52147    | 0.73639    |  15.1 | 24.00
Bond    | 0.87666    | 0.98518    | 1.1048     |   8.3 | 45.34
Kspace  | 0.27961    | 0.61449    | 0.80027    |  23.5 | 28.28
Neigh   | 0          | 0          | 0          |   0.0 |  0.00
Comm    | 0.029333   | 0.031825   | 0.033246   |   0.8 |  1.46
Output  | 0          | 0          | 0          |   0.0 |  0.00
Modify  | 0          | 0          | 0          |   0.0 |  0.00
Other   |            | 0.01988    |            |       |  0.91

Nlocal:        662.667 ave         783 max         604 min
Histogram: 1 1 2 1 0 0 0 0 0 1
Nghost:           4534 ave        4740 max        4430 min
Histogram: 1 2 1 0 1 0 0 0 0 1
Neighs:         103220 ave      142159 max       87824 min
Histogram: 4 0 0 0 0 1 0 0 0 1

Total # of neighbors = 619318
Ave neighs/atom = 155.76408
Ave special neighs/atom = 13.641348
Neighbor list builds = 0
Dangerous builds = 0
# ------------------------------- Run Section -------------------------------
#

thermo_style custom step temp pe evdwl ecoul ebond eangle edihed eimp density vol
thermo          100

neigh_modify delay 0 every 1 check yes

fix Langevin  all langevin 300 300 100.0 482432
fix moveLimit all nve/limit 0.1
run 10000
PPPM initialization ...
  using 12-bit tables for long-range coulomb (../kspace.cpp:342)
  G vector (1/distance) = 0.18266917
  grid = 10 10 10
  stencil order = 5
  estimated absolute RMS force accuracy = 0.02230145
  estimated relative force accuracy = 6.7160156e-05
  using double precision KISS FFT
  3d grid and FFT values/proc = 1350 200
Generated 28 of 28 mixed pair_coeff terms from sixthpower/geometric mixing rule
Per MPI rank memory allocation (min/avg/max) = 28.67 | 28.81 | 29.09 Mbytes
   Step          Temp          PotEng         E_vdwl         E_coul         E_bond        E_angle        E_dihed        E_impro        Density         Volume    
        19   0              44342.245      164.05032      1229.3536      3759.811       46609.972     -5923.2749     -96.183247      0.44999999     100038.64    
       100   416.24216      41575.842     -167.24121      1157.4521      2538.0533      45868.488     -6144.7503     -271.33351      0.44999999     100038.64    
       200   354.68126      40332.237     -449.97474      1156.7683      2336.6431      44849.502     -5896.0051     -256.84029      0.44999999     100038.64    
       300   324.99475      39917.621     -560.99458      1139.9215      2260.9986      44713.09      -5964.0907     -264.65951      0.44999999     100038.64    
       400   316.35358      39688.005     -559.91131      1131.5115      2181.9773      44751.847     -6127.951      -281.55893      0.44999999     100038.64    
       500   317.94113      39659.877     -625.42846      1133.796       2223.1306      44489.223     -5875.1388     -277.14016      0.44999999     100038.64    
       600   311.07876      39595.559     -582.42715      1132.1918      2192.189       44522.488     -5991.2064     -269.54045      0.44999999     100038.64    
       700   307.39814      39553.691     -593.51554      1121.8378      2207.076       44498.227     -6014.1799     -258.35175      0.44999999     100038.64    
       800   308.97993      39629.609     -600.90799      1118.2167      2283.6496      44698.98      -6181.4153     -280.96399      0.44999999     100038.64    
       900   300.70393      39638.349     -603.99368      1111.112       2269.848       44484.775     -5938.0709     -276.47218      0.44999999     100038.64    
      1000   300.99252      39492.714     -614.16206      1118.3002      2150.054       44477.777     -5968.1761     -262.5762       0.44999999     100038.64    
      1100   307.48763      39676.672     -571.16394      1116.5553      2254.6518      44521.683     -5957.7713     -278.33684      0.44999999     100038.64    
      1200   301.87857      39437.921     -601.42023      1119.1769      2120.5703      44522.193     -6039.1701     -275.231        0.44999999     100038.64    
      1300   316.61156      39553.175     -662.68804      1114.7898      2189.8749      44364.472     -5781.3567     -261.88895      0.44999999     100038.64    
      1400   311.30998      39335.885     -653.27033      1112.7351      2105.0364      44281.355     -5823.6193     -275.78565      0.44999999     100038.64    
      1500   310.76161      39330.186     -659.85954      1099.5192      2187.2108      44216.087     -5839.7005     -261.81827      0.44999999     100038.64    
      1600   338.98746      39414.468     -637.36218      1101.1553      2231.5458      44248.952     -5853.6765     -263.614        0.44999999     100038.64    
      1700   310.54548      39343.449     -643.16396      1107.9114      2194.3566      44061.044     -5693.7815     -269.85421      0.44999999     100038.64    
      1800   309.15926      39337.217     -664.67252      1100.9914      2149.8068      44217.193     -5784.7531     -267.62732      0.44999999     100038.64    
      1900   303.5738       39183.197     -687.09971      1107.9736      2174.2554      43966.206     -5707.0425     -257.76478      0.44999999     100038.64    
      2000   299.22492      39270.98      -655.97021      1100.9818      2133.7042      44221.288     -5837.9835     -278.62676      0.44999999     100038.64    
      2100   301.45286      39271.714     -666.31168      1099.6813      2183.7935      44172.759     -5833.2341     -273.12474      0.44999999     100038.64    
      2200   303.86042      39365.56      -682.68125      1111.2505      2220.93        44113.179     -5731.4472     -252.45275      0.44999999     100038.64    
      2300   308.70917      39145.785     -687.68401      1109.0662      2149.7688      43988.818     -5737.2804     -264.33058      0.44999999     100038.64    
      2400   305.18403      39130.654     -710.78738      1101.3515      2108.118       44116.933     -5799.6673     -272.79925      0.44999999     100038.64    
      2500   297.24706      39103.492     -683.24398      1097.513       2107.2818      43889.375     -5635.8318     -259.0954       0.44999999     100038.64    
      2600   305.30062      39062.724     -693.67482      1099.5253      2121.0391      43863.07      -5649.9835     -265.1007       0.44999999     100038.64    
      2700   297.07937      38964.569     -710.50346      1098.9763      2054.5538      44010.341     -5801.7933     -273.90131      0.44999999     100038.64    
      2800   292.97153      38985.648     -721.13234      1101.1401      2115.5593      43838.85      -5667.4515     -268.80764      0.44999999     100038.64    
      2900   303.6695       39111.801     -714.59296      1104.1689      2125.974       43945.284     -5679.5487     -257.40126      0.44999999     100038.64    
      3000   297.81046      39008.374     -682.38509      1090.3157      2147.4386      43880.383     -5742.8016     -271.96495      0.44999999     100038.64    
      3100   299.72398      39001.663     -715.05351      1093.6984      2119.4896      43970.014     -5775.573      -279.62527      0.44999999     100038.64    
      3200   307.32695      39067.336     -716.37756      1093.2347      2136.307       44072.332     -5825.6996     -279.96429      0.44999999     100038.64    
      3300   302.28868      39012.542     -717.24313      1096.5677      2125.4259      43896.453     -5706.3107     -270.04743      0.44999999     100038.64    
      3400   302.65656      39078.017     -712.24624      1091.5897      2060.7315      44011.482     -5694.6236     -266.52306      0.44999999     100038.64    
      3500   298.75902      39014.734     -715.43616      1087.3116      2076.8658      44060.484     -5800.5926     -281.32513      0.44999999     100038.64    
      3600   299.5056       39042.584     -704.81531      1085.3885      2139.1532      43978.739     -5765.3225     -276.91187      0.44999999     100038.64    
      3700   299.52605      39015.653     -743.36487      1098.4265      2090.375       44022.198     -5761.6534     -276.20006      0.44999999     100038.64    
      3800   299.25175      39013.526     -735.27105      1095.5723      2098.5663      44055.299     -5811.7051     -274.67943      0.44999999     100038.64    
      3900   303.34397      39037.975     -721.03862      1088.2624      2078.9296      44024.775     -5750.1704     -268.54351      0.44999999     100038.64    
      4000   300.32477      38977.677     -726.93412      1095.452       2025.9911      44001.515     -5726.2417     -277.8399       0.44999999     100038.64    
      4100   300.17101      39143.68      -721.1961       1096.05        2206.7693      43925.126     -5685.547      -263.61998      0.44999999     100038.64    
      4200   298.50318      39069.655     -725.1522       1093.7261      2130.2003      43979.526     -5718.2399     -276.40098      0.44999999     100038.64    
      4300   298.41033      39075.82      -740.13781      1089.4223      2156.8136      44118.06      -5846.2354     -288.5345       0.44999999     100038.64    
      4400   299.68048      39020.359     -722.21435      1089.5737      2107.5048      44004.004     -5765.3935     -280.40231      0.44999999     100038.64    
      4500   311.31711      39038.163     -744.56406      1088.191       2113.8633      44043.715     -5785.6458     -263.54295      0.44999999     100038.64    
      4600   305.8184       39097.291     -711.66214      1089.4729      2152.1633      43877.091     -5631.2925     -265.09852      0.44999999     100038.64    
      4700   305.54602      39038.227     -750.50701      1090.2548      2097.0198      43909.176     -5625.8271     -267.65981      0.44999999     100038.64    
      4800   300.39907      39024.982     -738.6374       1089.027       2126.181       43939.06      -5699.1286     -276.86688      0.44999999     100038.64    
      4900   300.10692      38986.135     -762.69358      1092.0558      2130.3816      43895.729     -5688.9658     -265.02091      0.44999999     100038.64    
      5000   299.17577      38971.353     -744.098        1083.0873      2155.6782      43788.739     -5626.3629     -269.85991      0.44999999     100038.64    
      5100   299.10606      38970.917     -773.51633      1085.3662      2132.4434      43893.654     -5690.656      -260.90427      0.44999999     100038.64    
      5200   302.0012       38986.618     -766.42703      1078.6718      2084.0871      43991.898     -5710.7506     -275.0908       0.44999999     100038.64    
      5300   300.60456      38982.029     -746.70957      1081.8571      2113.5679      43924.334     -5698.1669     -276.60218      0.44999999     100038.64    
      5400   292.02511      39030.864     -758.46056      1072.7606      2138.6996      44009.254     -5748.9204     -267.44554      0.44999999     100038.64    
      5500   304.3409       38962.555     -754.69755      1083.7624      2113.0766      43925.304     -5713.1864     -276.68321      0.44999999     100038.64    
      5600   292.69803      38994.384     -748.67554      1079.5312      2126.0926      43911.125     -5691.3717     -267.31817      0.44999999     100038.64    
      5700   296.56981      38949.977     -774.65079      1087.4447      2127.9191      43894.627     -5687.2477     -283.1511       0.44999999     100038.64    
      5800   297.12745      39005.557     -759.46141      1087.2957      2123.2693      43885.143     -5657.7859     -257.40984      0.44999999     100038.64    
      5900   298.60154      38942.205     -760.48328      1083.8207      2052.5344      43923.687     -5672.3128     -269.50395      0.44999999     100038.64    
      6000   296.38018      38992.941     -769.74577      1087.4033      2137.9034      43877.656     -5674.2679     -250.07988      0.44999999     100038.64    
      6100   303.2413       38898.751     -756.84956      1090.057       2060.2526      43891.337     -5695.6922     -274.92131      0.44999999     100038.64    
      6200   300.24937      39009.429     -768.04088      1091.4094      2107.9688      43988.799     -5730.8207     -264.51063      0.44999999     100038.64    
      6300   299.59178      38927.398     -788.16601      1086.5388      2142.1518      43779.104     -5628.9933     -249.09884      0.44999999     100038.64    
      6400   296.57247      38927.861     -783.07671      1093.5787      2111.4401      43826.956     -5639.4763     -267.87258      0.44999999     100038.64    
      6500   301.15269      38993.113     -747.31137      1093.3519      2144.8632      43860.221     -5679.2752     -264.35342      0.44999999     100038.64    
      6600   296.6568       39032.64      -736.30839      1086.9761      2098.7111      43922.78      -5654.311      -272.11566      0.44999999     100038.64    
      6700   300.18898      38972.586     -786.93246      1093.4149      2165.251       43844.369     -5656.4768     -273.93974      0.44999999     100038.64    
      6800   299.03092      38974.459     -766.0415       1094.3917      2142.1855      43858.523     -5669.0383     -271.35823      0.44999999     100038.64    
      6900   297.95616      38953.128     -814.07287      1097.6251      2098.4367      43940.11      -5678.3257     -276.24921      0.44999999     100038.64    
      7000   304.56281      39008.339     -765.26058      1100.6781      2097.8175      43801.968     -5552.4617     -259.99571      0.44999999     100038.64    
      7100   303.94619      39035.156     -773.84643      1095.9777      2152.2771      43927.084     -5682.9626     -269.21875      0.44999999     100038.64    
      7200   302.17572      39013.908     -746.34299      1092.7645      2164.991       43991.051     -5793.6928     -280.54328      0.44999999     100038.64    
      7300   297.8719       38991.962     -761.81974      1099.4483      2105.4354      43872.708     -5646.4389     -263.29409      0.44999999     100038.64    
      7400   298.14739      39002.624     -776.4641       1096.3565      2103.0734      43823.291     -5563.7081     -266.539        0.44999999     100038.64    
      7500   300.43597      38978.535     -751.24484      1099.213       2148.7123      43924.532     -5749.7311     -278.6623       0.44999999     100038.64    
      7600   304.89983      38909.157     -795.80076      1094.4477      2150.5752      43792.883     -5652.7488     -265.87439      0.44999999     100038.64    
      7700   303.49648      38954.344     -783.47622      1091.4546      2194.911       43891.104     -5744.1147     -282.42544      0.44999999     100038.64    
      7800   302.66937      39021.407     -779.60901      1093.7931      2137.9996      43868.638     -5637.1454     -248.58267      0.44999999     100038.64    
      7900   304.21374      38934.797     -804.18915      1094.1623      2102.4292      43866.255     -5635.9211     -273.0325       0.44999999     100038.64    
      8000   299.93587      38993.351     -754.53926      1088.5397      2126.8594      43783.487     -5567.8383     -268.81671      0.44999999     100038.64    
      8100   303.17933      38978.305     -771.14816      1088.5157      2103.2281      43908.748     -5673.1646     -262.51257      0.44999999     100038.64    
      8200   301.64978      38932.954     -786.98692      1084.8534      2060.6614      43904.016     -5637.8869     -276.64784      0.44999999     100038.64    
      8300   294.85622      38935.128     -759.24117      1089.0006      2143.8076      43934.462     -5785.3909     -272.11178      0.44999999     100038.64    
      8400   306.84133      38907.424     -776.52193      1090.0727      2087.7092      43834.088     -5643.2671     -268.23344      0.44999999     100038.64    
      8500   296.52801      38958.117     -785.2652       1091.4038      2209.9753      43781.334     -5651.9959     -270.47805      0.44999999     100038.64    
      8600   299.17606      38971.752     -787.56292      1093.1962      2085.488       44033.462     -5755.8828     -281.1009       0.44999999     100038.64    
      8700   307.62384      38969.29      -790.56175      1084.0589      2151.55        43816.179     -5617.4582     -258.93633      0.44999999     100038.64    
      8800   299.88834      38904.895     -778.71874      1080.7812      2092.5781      43883.635     -5676.8268     -281.32788      0.44999999     100038.64    
      8900   298.45218      39036.363     -780.2481       1087.0001      2121.93        44072.093     -5777.9552     -271.48002      0.44999999     100038.64    
      9000   302.31584      38987.272     -784.2408       1085.3801      2108.5535      44014.284     -5744.4257     -278.34368      0.44999999     100038.64    
      9100   301.7246       38948.362     -786.17538      1084.3321      2178.3946      43904.579     -5749.7094     -269.2849       0.44999999     100038.64    
      9200   307.51021      38977.384     -778.7051       1087.0311      2091.0904      43950.251     -5681.3811     -276.65018      0.44999999     100038.64    
      9300   301.61727      39013.833     -798.90725      1081.7015      2087.1479      43992.132     -5671.395      -262.04357      0.44999999     100038.64    
      9400   300.50306      39003.465     -795.1611       1081.7565      2109.0267      44112.714     -5819.9062     -270.5385       0.44999999     100038.64    
      9500   299.50586      38845.857     -769.97262      1073.6086      2093.2419      43813.39      -5671.8184     -277.72143      0.44999999     100038.64    
      9600   300.89521      38936.19      -796.51655      1083.1859      2087.3251      43891.345     -5644.6191     -269.15512      0.44999999     100038.64    
      9700   300.46814      38928.186     -790.84697      1078.9003      2090.02        43871.565     -5637.621      -268.30089      0.44999999     100038.64    
      9800   303.45439      38973.985     -796.2519       1085.5218      2114.9589      43957.222     -5700.93       -270.89112      0.44999999     100038.64    
      9900   303.4304       39002.856     -780.98963      1085.832       2165.8107      43871.843     -5667.5268     -256.84154      0.44999999     100038.64    
     10000   308.37739      38936.972     -795.06351      1083.242       2129.3745      43731.59      -5537.9121     -258.39197      0.44999999     100038.64    
     10019   300.3759       38979.701     -760.78679      1082.9285      2113.8026      43906.341     -5673.4331     -273.15967      0.44999999     100038.64    
Loop time of 65.77 on 6 procs for 10000 steps with 3976 atoms

Performance: 13.137 ns/day, 1.827 hours/ns, 152.045 timesteps/s, 604.531 katom-step/s
99.2% CPU use with 6 MPI tasks x no OpenMP threads

MPI task timing breakdown:
Section |  min time  |  avg time  |  max time  |%varavg| %total
---------------------------------------------------------------
Pair    | 11.21      | 13.223     | 18.473     |  66.3 | 20.10
Bond    | 23.198     | 29.057     | 36.124     |  79.9 | 44.18
Kspace  | 8.1832     | 20.269     | 26.978     | 133.6 | 30.82
Neigh   | 1.0729     | 1.08       | 1.0846     |   0.4 |  1.64
Comm    | 1.237      | 1.4715     | 1.5391     |   8.9 |  2.24
Output  | 0.0041528  | 0.0054236  | 0.010776   |   3.3 |  0.01
Modify  | 0.29546    | 0.33333    | 0.40485    |   5.9 |  0.51
Other   |            | 0.3308     |            |       |  0.50

Nlocal:        662.667 ave         852 max         552 min
Histogram: 1 0 2 2 0 0 0 0 0 1
Nghost:        4574.33 ave        4798 max        4415 min
Histogram: 2 0 0 1 1 0 1 0 0 1
Neighs:         105133 ave      155780 max       88026 min
Histogram: 2 3 0 0 0 0 0 0 0 1

Total # of neighbors = 630797
Ave neighs/atom = 158.65116
Ave special neighs/atom = 13.641348
Neighbor list builds = 263
Dangerous builds = 0
unfix Langevin
unfix moveLimit

fix 		relax all npt temp 300.0 300.0 100 iso 1.0 1.0 1000
run 25000
PPPM initialization ...
  using 12-bit tables for long-range coulomb (../kspace.cpp:342)
  G vector (1/distance) = 0.18266917
  grid = 10 10 10
  stencil order = 5
  estimated absolute RMS force accuracy = 0.02230145
  estimated relative force accuracy = 6.7160156e-05
  using double precision KISS FFT
  3d grid and FFT values/proc = 1350 200
Generated 28 of 28 mixed pair_coeff terms from sixthpower/geometric mixing rule
Per MPI rank memory allocation (min/avg/max) = 28.68 | 29 | 29.09 Mbytes
   Step          Temp          PotEng         E_vdwl         E_coul         E_bond        E_angle        E_dihed        E_impro        Density         Volume    
     10019   300.3759       38979.701     -760.78679      1082.9285      2113.8026      43906.341     -5673.4331     -273.15967      0.44999999     100038.64    
     10100   302.20431      38948.643     -788.62378      1082.1299      2145.5917      43949.965     -5749.6894     -274.75584      0.45058317     99909.167    
     10200   298.85613      38942.242     -769.42189      1078.8796      2083.3336      43932.225     -5692.5127     -274.54426      0.45294829     99387.48     
     10300   292.10422      38915.483     -791.4298       1078.2049      2037.0441      43963.063     -5680.8617     -274.1037       0.4569095      98525.833    
     10400   294.81699      38871.773     -793.37813      1072.1523      2059.666       43887.06      -5670.551      -266.39423      0.46213378     97412.029    
     10500   300.32194      38896.238     -818.48657      1073.0703      2090.8281      43896.337     -5659.0598     -270.60454      0.46689463     96418.733    
     10600   301.8192       38918.511     -870.51781      1072.8643      2170.8645      44000.758     -5772.1025     -266.34776      0.47108289     95561.503    
     10700   303.58814      38866.403     -825.30691      1074.4489      2079.4817      43948.132     -5728.9598     -265.8279       0.4743786      94897.597    
     10800   300.14187      38850.562     -862.52193      1074.8935      2060.2592      43928.714     -5659.3166     -274.63606      0.47684628     94406.502    
     10900   298.85525      38800.77      -870.61049      1077.4531      2041.1217      43869.904     -5624.3985     -278.07775      0.4798836      93808.976    
     11000   297.09794      38801.947     -861.09819      1065.9992      2090.9702      43826.375     -5633.0179     -272.08009      0.48352135     93103.208    
[...]
     46000   502.3433       39660.412     -1488.326       1164.7278      2966.3259      44417.864     -5586.4995     -266.10717      0.93355169     48221.635      0              0              0              4            
     46100   506.84161      39660.231     -1467.7536      1165.7919      3016.9162      44346.425     -5589.5139     -264.98634      0.93296946     48251.728      0              0              0              4            
     46200   492.72237      39895.306     -1402.3894      1172.1301      3050.4254      44450.904     -5562.6657     -268.32493      0.93446652     48174.426      0              0              0              4            
     46300   508.39651      39925.316     -1476.0851      1166.3029      3087.0394      44581.249     -5613.021      -275.11762      0.93521426     48135.909      0              0              0              4            
     46400   519.32017      39777.017     -1434.4297      1155.5489      3037.4711      44468.18      -5629.59       -270.58268      0.93518006     48137.669      0              0              0              4            
     46500   500.98145      39824.75      -1473.8678      1161.8058      3144.3132      44311.17      -5504.5946     -263.53836      0.93457673     48168.746      0              0              0              4            
     46600   500.36487      39730.75      -1475.3489      1155.4325      3032.5911      44470.675     -5640.2262     -261.28109      0.93427616     48184.242      0              0              0              4            
     46700   497.48391      39737.187     -1503.3058      1146.9206      3022.1101      44476.228     -5590.0068     -264.42879      0.93412044     48192.275      0              0              0              4            
     46800   505.09723      39637.135     -1456.1584      1156.2584      2916.4544      44490.817     -5644.6424     -275.90595      0.93487023     48153.623      0              0              0              4            
     46900   504.69459      39733.298     -1490.9414      1158.0352      3050.0949      44461.277     -5627.409      -269.03772      0.93542579     48125.024      0              0              0              4            
     47000   505.27186      39878.063     -1441.3958      1149.5472      3167.29        44553.498     -5723.3728     -278.75962      0.93636893     48076.551      0              0              0              4            
     47100   504.53545      39854.896     -1429.6025      1148.1542      3073.4885      44409.88      -5541.4753     -256.93401      0.93750977     48018.048      0              0              0              4            
     47200   497.4098       39772.988     -1451.2639      1149.5097      3075.1679      44369.75      -5564.5895     -257.92644      0.93782324     48001.997      0              0              0              4            
     47300   497.98105      39694.71      -1428.3502      1146.8403      3007.173       44332.613     -5551.646      -264.19403      0.93843414     47970.749      0              0              0              4            
     47400   500.97746      39678.986     -1485.9135      1149.7769      3000.3881      44475.524     -5654.195      -256.31587      0.93937149     47922.882      0              0              0              4            
     47500   498.31991      39781.452     -1439.5336      1139.1044      3070.6744      44432.811     -5590.0249     -280.42914      0.94000598     47890.534      0              0              0              4            
     47600   506.89878      39789.019     -1464.6574      1144.3027      3071.7885      44517.056     -5645.1539     -282.15018      0.94008366     47886.577      0              0              0              4            
     47700   512.39031      39855.032     -1503.3289      1139.9557      3051.1966      44640.86      -5655.7297     -264.92495      0.93855        47964.828      0              0              0              4            
     47800   513.02417      39749.703     -1452.4639      1141.9763      3083.3935      44450.515     -5660.0721     -260.922        0.93591712     48099.76       0              0              0              4            
     47900   497.56629      39739.694     -1467.2089      1135.5026      3034.6976      44312.465     -5472.1887     -252.31844      0.93357901     48220.224      0              0              0              4            
     48000   500.71111      39663.93      -1468.7494      1145.6983      3045.9461      44323.286     -5579.5935     -252.45061      0.93120161     48343.332      0              0              0              4            
     48100   496.31166      39770.376     -1422.5426      1142.1339      3044.4325      44533.249     -5690.4671     -286.53398      0.92926583     48444.037      0              0              0              4            
     48200   506.95244      39790.898     -1464.1549      1146.8917      3060.2455      44631.378     -5752.9498     -281.79855      0.927421       48540.403      0              0              0              4            
     48300   506.0209       39862.535     -1414.722       1152.0539      3017.7731      44448.028     -5540.8811     -252.33366      0.92541333     48645.711      0              0              0              4            
     48400   502.41238      39810.664     -1450.0313      1147.5849      3037.9891      44500.756     -5608.9714     -271.26845      0.92251484     48798.553      0              0              0              4            
     48500   498.06944      39637.278     -1428.083       1146.9821      2954.1065      44430.661     -5643.4183     -275.86378      0.92086955     48885.739      0              0              0              4            
     48600   495.12693      39723.497     -1446.4248      1151.24        3066.8583      44327.892     -5558.8117     -270.36056      0.92000075     48931.904      0              0              0              4            
     48700   499.22246      39820.112     -1407.5296      1153.4363      3040.2692      44364.481     -5538.5508     -244.30681      0.92086899     48885.769      0              0              0              4            
     48800   497.60654      39913.404     -1439.0327      1151.6419      3017.4931      44629.899     -5631.0131     -268.39439      0.92170952     48841.189      0              0              0              4            
     48900   504.92747      39822.058     -1418.2678      1150.2845      3109.6298      44436.429     -5636.1418     -272.29888      0.92255548     48796.403      0              0              0              4            
     49000   511.0186       39618.827     -1460.6978      1163.4073      3020.5886      44279.288     -5576.8214     -258.28959      0.92345794     48748.716      0              0              0              4            
     49100   491.62899      39686.658     -1482.678       1163.2403      3025.2846      44283.564     -5491.8186     -263.70207      0.92526025     48653.759      0              0              0              4            
     49200   494.74095      39705.361     -1421.8388      1161.4654      2998.9308      44456.067     -5680.8389     -261.02385      0.92824052     48497.548      0              0              0              4            
     49300   510.21431      39659.838     -1437.0734      1152.9621      3009.764       44319.268     -5574.7186     -263.13055      0.93069873     48369.453      0              0              0              4            
     49400   498.86399      39834.882     -1468.2737      1153.8128      3047.694       44439.24      -5543.9118     -245.84884      0.93242119     48280.101      0              0              0              4            
     49500   505.87403      39735.736     -1435.0821      1160.4467      3091.3005      44475.46      -5735.9188     -272.16532      0.93393828     48201.674      0              0              0              4            
     49600   503.00638      39722.47      -1455.5189      1160.5786      2955.9036      44482.617     -5599.4088     -273.3068       0.93568899     48111.487      0              0              0              4            
     49700   493.1265       39671.801     -1437.825       1149.0533      3037.9345      44408.269     -5657.9939     -279.28565      0.93769964     48008.325      0              0              0              4            
     49800   492.00117      39659.355     -1432.558       1150.6947      3007.2513      44562.044     -5788.2365     -293.05708      0.94070867     47854.761      0              0              0              4            
     49900   493.51722      39804.475     -1445.4405      1159.9469      3121.4703      44418.437     -5648.2596     -256.09512      0.94435451     47670.01       0              0              0              4            
     50000   494.14925      39896.119     -1451.637       1151.6404      3063.7681      44571.011     -5632.2114     -261.29608      0.94737697     47517.926      0              0              0              4            
     50100   499.37235      39799.55      -1471.5079      1145.4613      3066.1671      44444.488     -5572.6037     -266.59407      0.94856966     47458.179      0              0              0              4            
     50200   498.70043      39729.154     -1499.1882      1147.8715      3040.1211      44405.769     -5555.229      -261.10575      0.94904565     47434.377      0              0              0              4            
     50300   498.8703       39618.474     -1467.7262      1143.0691      2972.9542      44344.619     -5560.1744     -264.04034      0.94951392     47410.984      0              0              0              4            
     50400   489.37268      39587.648     -1533.8695      1146.1054      3025.6015      44440.339     -5666.4888     -275.03665      0.95039125     47367.217      0              0              0              4            
     50500   490.90216      39520.079     -1496.2788      1145.4716      2974.8477      44415.933     -5694.6484     -275.65182      0.95285491     47244.747      0              0              0              4            
     50600   500.96885      39621.559     -1505.2264      1137.0839      3022.7985      44399.43      -5607.5105     -275.81479      0.955204       47128.56       0              0              0              4            
     50700   506.44491      39660.37      -1506.4309      1145.6726      3118.7306      44330.229     -5617.0145     -262.50948      0.95642075     47068.603      0              0              0              4            
     50800   510.41098      39631.169     -1482.2556      1145.2137      2980.8988      44416.968     -5617.52       -263.08048      0.95623583     47077.706      0              0              0              4            
     50900   512.22634      39569.441     -1528.3351      1162.1329      3030.6916      44243.202     -5532.8078     -257.49235      0.95429569     47173.417      0              0              0              4            
     51000   496.90799      39649.408     -1474.2364      1150.2522      3034.0064      44299.117     -5547.3794     -263.92474      0.95153539     47310.262      0              0              0              4            
     51100   485.7047       39706.323     -1508.0796      1132.3556      3019.6253      44434.617     -5549.8316     -273.86844      0.94820913     47476.224      0              0              0              4            
     51200   495.31712      39660.184     -1488.4813      1136.3749      3030.9248      44449.524     -5657.5671     -260.89162      0.94477816     47648.634      0              0              0              4            
     51300   497.43362      39835.726     -1473.9873      1137.4728      3029.1555      44488.735     -5521.8977     -271.36998      0.94169586     47804.594      0              0              0              4            
     51400   498.2831       39859.41      -1458.05        1136.8112      3050.029       44410.675     -5482.3041     -245.36162      0.93879216     47952.455      0              0              0              4            
     51500   504.66836      39706.311     -1483.515       1143.6823      3133.2712      44320.394     -5596.819      -258.74337      0.9364826      48070.716      0              0              0              4            
     51600   499.54062      39636.246     -1469.1045      1142.4849      2905.6817      44340.816     -5477.0831     -256.40818      0.9347184      48161.445      0              0              0              4            
     51700   499.21695      39604.651     -1477.0566      1137.4361      3033.7931      44380.553     -5649.5832     -271.03908      0.93418883     48188.747      0              0              0              4            
     51800   516.78297      39626.152     -1456.4728      1148.2948      2982.3367      44316.667     -5556.4395     -260.55431      0.93470813     48161.974      0              0              0              4            
     51900   504.71007      39841.305     -1505.493       1151.8209      3035.0504      44677.062     -5702.1729     -268.63182      0.93738562     48024.407      0              0              0              4            
     52000   502.87677      39780.369     -1431.5722      1141.8182      3116.7078      44357.632     -5599.411      -257.64253      0.94125394     47827.039      0              0              0              4            
     52100   497.22424      39721.883     -1475.9019      1147.3052      3120.6452      44380.937     -5623.1142     -282.02899      0.94446289     47664.54       0              0              0              4            
     52200   509.50028      39516.349     -1480.6882      1149.3172      2850.6992      44404.409     -5587.5002     -272.47997      0.94728435     47522.572      0              0              0              4            
     52300   501.82329      39724.452     -1489.7291      1158.7622      3086.6089      44326.926     -5548.3492     -261.67228      0.95085871     47343.931      0              0              0              4            
     52400   501.12882      39922.904     -1487.2286      1161.9565      3148.0572      44454.324     -5553.5931     -254.91378      0.95390473     47192.751      0              0              0              4            
     52500   507.62459      39784.765     -1485.2811      1151.2265      3090.5687      44539.177     -5689.2612     -275.73555      0.95589094     47094.691      0              0              0              4            
     52600   505.74671      39661.349     -1508.6851      1140.0885      3017.9409      44448.789     -5626.449      -261.29105      0.95527812     47124.903      0              0              0              4            
     52700   496.54275      39690.256     -1513.5688      1153.3169      3002.9856      44425.962     -5573.4256     -257.06148      0.95399316     47188.377      0              0              0              4            
     52800   496.93395      39685.329     -1495.68        1164.6857      3033.9937      44437.052     -5620.6393     -285.54366      0.9526709      47253.872      0              0              0              4            
     52900   498.86871      39755.483     -1443.7534      1156.17        2984.4998      44494.733     -5621.0809     -267.0824       0.95106965     47333.43       0              0              0              4            
     53000   504.53977      39852.528     -1521.5473      1153.47        3047.6539      44555.498     -5580.6494     -253.56695      0.94869305     47452.007      0              0              0              4            
     53100   511.44849      39876.435     -1458.2289      1150.3507      3085.6615      44303.194     -5411.6225     -243.29636      0.94649197     47562.357      0              0              0              4            
     53200   503.93801      39792.58      -1469.3134      1150.4649      3044.0008      44381.19      -5510.8305     -253.92992      0.94456547     47659.363      0              0              0              4            
     53300   490.83241      39768.031     -1447.0775      1147.2221      2991.516       44470.56      -5589.3493     -254.57273      0.94319361     47728.683      0              0              0              4            
     53400   496.26115      39674.792     -1510.8362      1147.9526      3047.0588      44418.484     -5611.7981     -265.49916      0.94296006     47740.505      0              0              0              4            
     53500   497.20181      39736.12      -1487.6272      1138.1224      3052.8105      44324.375     -5494.5881     -245.24751      0.94456955     47659.157      0              0              0              4            
     53600   500.15919      39818.337     -1445.8424      1138.0801      3109.7501      44490.65      -5637.1456     -287.21031      0.94742834     47515.349      0              0              0              4            
     53700   504.01878      39822.16      -1488.2166      1144.5907      3046.0302      44419.663     -5502.3021     -247.61342      0.95078309     47347.696      0              0              0              4            
     53800   506.20921      39705.343     -1504.8884      1150.6032      3072.2494      44397.778     -5593.426      -266.76324      0.95308854     47233.165      0              0              0              4            
     53900   491.46222      39704.734     -1501.5326      1139.3153      2986.6649      44358.772     -5473.631      -254.03061      0.9536824      47203.754      0              0              0              4            
     54000   490.65782      39716.82      -1544.1167      1155.1942      3081.6442      44440.486     -5615.034      -252.32447      0.9530313      47236.003      0              0              0              4            
     54100   502.0727       39694.74      -1494.669       1144.5047      2969.576       44487.556     -5600.2595     -263.53337      0.95239227     47267.696      0              0              0              4            
     54200   511.14399      39721.672     -1504.8327      1147.2621      3167.1246      44312.901     -5571.4371     -281.70506      0.95080225     47346.742      0              0              0              4            
     54300   507.79773      39746.194     -1566.6167      1149.8063      3048.3272      44477.645     -5543.8084     -272.03517      0.94861242     47456.04       0              0              0              4            
     54400   501.98134      39757.046     -1519.3873      1153.0324      3052.2293      44386.493     -5507.9818     -260.98352      0.94539887     47617.35       0              0              0              4            
     54500   499.55003      39717.209     -1482.8014      1147.3878      3099.4973      44399.024     -5613.5073     -283.14533      0.9415462      47812.193      0              0              0              4            
     54600   494.7479       39740.173     -1467.5303      1139.5917      2995.6737      44593.427     -5693.4008     -277.09038      0.93695993     48046.226      0              0              0              4            
     54700   502.43929      39734.57      -1443.1528      1144.7948      2992.6472      44444.686     -5589.1817     -265.75596      0.9331891      48240.372      0              0              0              4            
     54800   511.14945      39816.879     -1429.5594      1151.8841      3084.324       44405.351     -5579.3594     -265.67081      0.92987257     48412.428      0              0              0              4            
     54900   506.80645      39839.65      -1382.5009      1141.2483      3028.1902      44474.477     -5591.2549     -279.61618      0.92795223     48512.6