LAMMPS (22 Dec 2022)
WARNING: Using I/O redirection is unreliable with parallel runs. Better to use the -in switch to read input files. (../lammps.cpp:531)
# PREREQUISITES:
#
#     You must use moltemplate.sh to create 3 files:
#        system.data  system.in.init  system.in.settings
#     (Follow the instructions in README_setup.sh,
#      or run the file as a script using ./README_setup.sh)

# ------------------------------- Initialization Section --------------------

units real
atom_style full
pair_style lj/class2/coul/cut 10.0
bond_style class2
angle_style class2
dihedral_style class2
improper_style class2


# ------------------------------- Atom Definition Section -------------------

read_data       "pack_mol.data" extra/bond/per/atom 1 extra/angle/per/atom 12 extra/dihedral/per/atom 12 extra/improper/per/atom 12 extra/special/per/atom 12
Reading data file ...
  orthogonal box = (0 0 0) to (46.421867 46.421867 46.421867)
  1 by 2 by 3 MPI processor grid
  reading atoms ...
  3976 atoms
  scanning bonds ...
  5 = max bonds/atom
  scanning angles ...
  18 = max angles/atom
  scanning dihedrals ...
  30 = max dihedrals/atom
  scanning impropers ...
  16 = max impropers/atom
  reading bonds ...
  4628 bonds
  reading angles ...
  10230 angles
  reading dihedrals ...
  18834 dihedrals
  reading impropers ...
  6600 impropers
Finding 1-2 1-3 1-4 neighbors ...
  special bond factors lj:    0        0        0       
  special bond factors coul:  0        0        0       
     4 = max # of 1-2 neighbors
     9 = max # of 1-3 neighbors
    25 = max # of 1-4 neighbors
    36 = max # of special neighbors
  special bonds CPU = 0.019 seconds
  read_data CPU = 0.404 seconds

include calc.pram

# Masses

mass		1    12.01115  # c
mass		2    12.01115  # c1
mass		3    12.01115  # c3h
mass		4     1.00797  # h
mass		5     1.00797  # hc
mass		6    15.99940  # o3e
mass		7    15.99940  # oc
mass		8    15.99940  # oh

# Potentials

pair_coeff	 1  1    0.05400    4.01000  # c,c
pair_coeff	 2  2    0.05400    4.01000  # c1,c1
pair_coeff	 3  3    0.05400    4.01000  # c3h,c3h
pair_coeff	 4  4    0.02000    2.99500  # h,h
pair_coeff	 5  5    0.02000    2.99500  # hc,hc
pair_coeff	 6  6    0.24000    3.53500  # o3e,o3e
pair_coeff	 7  7    0.24000    3.53500  # oc,oc
pair_coeff	 8  8    0.24000    3.53500  # oh,oh

# Bond Coeffs

bond_coeff	 1    1.53000  299.67000 -501.77000  679.81000  # c,c
bond_coeff	 2    1.53000  299.67000 -501.77000  679.81000  # c,c1
bond_coeff	 3    1.53000  299.67000 -501.77000  679.81000  # c,c3h
bond_coeff	 4    1.10100  345.00000 -691.89000  844.60000  # c,hc
bond_coeff	 5    1.53000  299.67000 -501.77000  679.81000  # c1,c1
bond_coeff	 6    1.53000  299.67000 -501.77000  679.81000  # c1,c3h
bond_coeff	 7    1.10100  345.00000 -691.89000  844.60000  # c1,hc
bond_coeff	 8    1.42000  400.39540 -835.19510 1313.01420  # c1,o3e
bond_coeff	 9    1.42000  400.39540 -835.19510 1313.01420  # c1,oc
bond_coeff	10    1.42000  400.39540 -835.19510 1313.01420  # c1,oh
bond_coeff	11    1.53000  299.67000 -501.77000  679.81000  # c3h,c3h
bond_coeff	12    1.10100  345.00000 -691.89000  844.60000  # c3h,hc
bond_coeff	13    1.42000  400.39540 -835.19510 1313.01420  # c3h,o3e
bond_coeff	14    0.96000  493.84800    0.00000    0.00000  # h,oh

# Angle Coeffs

angle_coeff	 1  112.67000   39.51600   -7.44300   -9.55830  # c,c,c1
angle_coeff	 2  110.77000   41.45300  -10.60400    5.12900  # c,c,hc
angle_coeff	 3  112.67000   39.51600   -7.44300   -9.55830  # c,c1,c
angle_coeff	 4  112.67000   39.51600   -7.44300   -9.55830  # c,c1,c1
angle_coeff	 5  110.77000   41.45300  -10.60400    5.12900  # c,c1,hc
angle_coeff	 6  111.27000   54.53810   -8.36420  -13.08380  # c,c1,o3e
angle_coeff	 7  111.27000   54.53810   -8.36420  -13.08380  # c,c1,oc
angle_coeff	 8  112.67000   39.51600   -7.44300   -9.55830  # c,c3h,c3h
angle_coeff	 9  110.77000   41.45300  -10.60400    5.12900  # c,c3h,hc
angle_coeff	10  111.27000   54.53810   -8.36420  -13.08380  # c,c3h,o3e
angle_coeff	11  112.67000   39.51600   -7.44300   -9.55830  # c1,c,c1
angle_coeff	12  112.67000   39.51600   -7.44300   -9.55830  # c1,c,c3h
angle_coeff	13  110.77000   41.45300  -10.60400    5.12900  # c1,c,hc
angle_coeff	14  112.67000   39.51600   -7.44300   -9.55830  # c1,c1,c1
angle_coeff	15  112.67000   39.51600   -7.44300   -9.55830  # c1,c1,c3h
angle_coeff	16  110.77000   41.45300  -10.60400    5.12900  # c1,c1,hc
angle_coeff	17  111.27000   54.53810   -8.36420  -13.08380  # c1,c1,o3e
angle_coeff	18  111.27000   54.53810   -8.36420  -13.08380  # c1,c1,oc
angle_coeff	19  111.27000   54.53810   -8.36420  -13.08380  # c1,c1,oh
angle_coeff	20  112.67000   39.51600   -7.44300   -9.55830  # c1,c3h,c3h
angle_coeff	21  110.77000   41.45300  -10.60400    5.12900  # c1,c3h,hc
angle_coeff	22  111.27000   54.53810   -8.36420  -13.08380  # c1,c3h,o3e
angle_coeff	23  104.50000   35.74540  -10.00670   -6.27290  # c1,o3e,c1
angle_coeff	24  104.50000   35.74540  -10.00670   -6.27290  # c1,oc,c1
angle_coeff	25  109.00000   58.50000    0.00000    0.00000  # c1,oh,h
angle_coeff	26  110.77000   41.45300  -10.60400    5.12900  # c3h,c,hc
angle_coeff	27  110.77000   41.45300  -10.60400    5.12900  # c3h,c1,hc
angle_coeff	28  110.77000   41.45300  -10.60400    5.12900  # c3h,c3h,hc
angle_coeff	29  111.27000   54.53810   -8.36420  -13.08380  # c3h,c3h,o3e
angle_coeff	30  104.50000   35.74540  -10.00670   -6.27290  # c3h,o3e,c3h
angle_coeff	31  107.66000   39.64100  -12.92100   -2.43180  # hc,c,hc
angle_coeff	32  108.72800   58.54460  -10.80880  -12.40060  # hc,c1,o3e
angle_coeff	33  108.72800   58.54460  -10.80880  -12.40060  # hc,c1,oc
angle_coeff	34  108.72800   58.54460  -10.80880  -12.40060  # hc,c1,oh
angle_coeff	35  108.72800   58.54460  -10.80880  -12.40060  # hc,c3h,o3e

# BondBond Coeffs

angle_coeff	 1 bb    0.00000    1.53000    1.53000  # c,c,c1
angle_coeff	 2 bb    3.38720    1.53000    1.10100  # c,c,hc
angle_coeff	 3 bb    0.00000    1.53000    1.53000  # c,c1,c
angle_coeff	 4 bb    0.00000    1.53000    1.53000  # c,c1,c1
angle_coeff	 5 bb    3.38720    1.53000    1.10100  # c,c1,hc
angle_coeff	 6 bb   11.43180    1.53000    1.42000  # c,c1,o3e
angle_coeff	 7 bb   11.43180    1.53000    1.42000  # c,c1,oc
angle_coeff	 8 bb    0.00000    1.53000    1.53000  # c,c3h,c3h
angle_coeff	 9 bb    3.38720    1.53000    1.10100  # c,c3h,hc
angle_coeff	10 bb   11.43180    1.53000    1.42000  # c,c3h,o3e
angle_coeff	11 bb    0.00000    1.53000    1.53000  # c1,c,c1
angle_coeff	12 bb    0.00000    1.53000    1.53000  # c1,c,c3h
angle_coeff	13 bb    3.38720    1.53000    1.10100  # c1,c,hc
angle_coeff	14 bb    0.00000    1.53000    1.53000  # c1,c1,c1
angle_coeff	15 bb    0.00000    1.53000    1.53000  # c1,c1,c3h
angle_coeff	16 bb    3.38720    1.53000    1.10100  # c1,c1,hc
angle_coeff	17 bb   11.43180    1.53000    1.42000  # c1,c1,o3e
angle_coeff	18 bb   11.43180    1.53000    1.42000  # c1,c1,oc
angle_coeff	19 bb   11.43180    1.53000    1.42000  # c1,c1,oh
angle_coeff	20 bb    0.00000    1.53000    1.53000  # c1,c3h,c3h
angle_coeff	21 bb    3.38720    1.53000    1.10100  # c1,c3h,hc
angle_coeff	22 bb   11.43180    1.53000    1.42000  # c1,c3h,o3e
angle_coeff	23 bb   -7.11310    1.42000    1.42000  # c1,o3e,c1
angle_coeff	24 bb   -7.11310    1.42000    1.42000  # c1,oc,c1
angle_coeff	25 bb    0.00000    1.42000    0.96000  # c1,oh,h
angle_coeff	26 bb    3.38720    1.53000    1.10100  # c3h,c,hc
angle_coeff	27 bb    3.38720    1.53000    1.10100  # c3h,c1,hc
angle_coeff	28 bb    3.38720    1.53000    1.10100  # c3h,c3h,hc
angle_coeff	29 bb   11.43180    1.53000    1.42000  # c3h,c3h,o3e
angle_coeff	30 bb   -7.11310    1.42000    1.42000  # c3h,o3e,c3h
angle_coeff	31 bb    5.33160    1.10100    1.10100  # hc,c,hc
angle_coeff	32 bb   23.19790    1.10100    1.42000  # hc,c1,o3e
angle_coeff	33 bb   23.19790    1.10100    1.42000  # hc,c1,oc
angle_coeff	34 bb   23.19790    1.10100    1.42000  # hc,c1,oh
angle_coeff	35 bb   23.19790    1.10100    1.42000  # hc,c3h,o3e

# BondAngle Coeffs

angle_coeff	 1 ba    8.01600    8.01600    1.53000    1.53000  # c,c,c1
angle_coeff	 2 ba   11.42100   20.75400    1.53000    1.10100  # c,c,hc
angle_coeff	 3 ba    8.01600    8.01600    1.53000    1.53000  # c,c1,c
angle_coeff	 4 ba    8.01600    8.01600    1.53000    1.53000  # c,c1,c1
angle_coeff	 5 ba   11.42100   20.75400    1.53000    1.10100  # c,c1,hc
angle_coeff	 6 ba    2.68680   20.40330    1.53000    1.42000  # c,c1,o3e
angle_coeff	 7 ba   20.40330    2.68680    1.53000    1.42000  # c,c1,oc
angle_coeff	 8 ba    8.01600    8.01600    1.53000    1.53000  # c,c3h,c3h
angle_coeff	 9 ba   11.42100   20.75400    1.53000    1.10100  # c,c3h,hc
angle_coeff	10 ba    2.68680   20.40330    1.53000    1.42000  # c,c3h,o3e
angle_coeff	11 ba    8.01600    8.01600    1.53000    1.53000  # c1,c,c1
angle_coeff	12 ba    8.01600    8.01600    1.53000    1.53000  # c1,c,c3h
angle_coeff	13 ba   20.75400   11.42100    1.53000    1.10100  # c1,c,hc
angle_coeff	14 ba    8.01600    8.01600    1.53000    1.53000  # c1,c1,c1
angle_coeff	15 ba    8.01600    8.01600    1.53000    1.53000  # c1,c1,c3h
angle_coeff	16 ba   20.75400   11.42100    1.53000    1.10100  # c1,c1,hc
angle_coeff	17 ba    2.68680   20.40330    1.53000    1.42000  # c1,c1,o3e
angle_coeff	18 ba    2.68680   20.40330    1.53000    1.42000  # c1,c1,oc
angle_coeff	19 ba   20.40330    2.68680    1.53000    1.42000  # c1,c1,oh
angle_coeff	20 ba    8.01600    8.01600    1.53000    1.53000  # c1,c3h,c3h
angle_coeff	21 ba   20.75400   11.42100    1.53000    1.10100  # c1,c3h,hc
angle_coeff	22 ba    2.68680   20.40330    1.53000    1.42000  # c1,c3h,o3e
angle_coeff	23 ba   -2.81120   -2.81120    1.42000    1.42000  # c1,o3e,c1
angle_coeff	24 ba   -2.81120   -2.81120    1.42000    1.42000  # c1,oc,c1
angle_coeff	25 ba    0.00000    0.00000    1.42000    0.96000  # c1,oh,h
angle_coeff	26 ba   11.42100   20.75400    1.53000    1.10100  # c3h,c,hc
angle_coeff	27 ba   11.42100   20.75400    1.53000    1.10100  # c3h,c1,hc
angle_coeff	28 ba   11.42100   20.75400    1.53000    1.10100  # c3h,c3h,hc
angle_coeff	29 ba   20.40330    2.68680    1.53000    1.42000  # c3h,c3h,o3e
angle_coeff	30 ba   -2.81120   -2.81120    1.42000    1.42000  # c3h,o3e,c3h
angle_coeff	31 ba   18.10300   18.10300    1.10100    1.10100  # hc,c,hc
angle_coeff	32 ba    4.61890   55.32700    1.10100    1.42000  # hc,c1,o3e
angle_coeff	33 ba    4.61890   55.32700    1.10100    1.42000  # hc,c1,oc
angle_coeff	34 ba   55.32700    4.61890    1.10100    1.42000  # hc,c1,oh
angle_coeff	35 ba    4.61890   55.32700    1.10100    1.42000  # hc,c3h,o3e

# Dihedral Coeffs

dihedral_coeff	 1    0.00000    0.00000    0.05140    0.00000   -0.14300    0.00000  # c,c,c1,c1
dihedral_coeff	 2    0.00000    0.00000    0.03160    0.00000   -0.16810    0.00000  # c,c,c1,hc
dihedral_coeff	 3    0.71370    0.00000    0.26600    0.00000   -0.25450    0.00000  # c,c,c1,oc
dihedral_coeff	 4    0.00000    0.00000    0.05140    0.00000   -0.14300    0.00000  # c,c1,c,c1
dihedral_coeff	 5    0.00000    0.00000    0.03160    0.00000   -0.16810    0.00000  # c,c1,c,hc
dihedral_coeff	 6    0.00000    0.00000    0.05140    0.00000   -0.14300    0.00000  # c,c1,c1,c
dihedral_coeff	 7    0.00000    0.00000    0.05140    0.00000   -0.14300    0.00000  # c,c1,c1,c1
dihedral_coeff	 8    0.00000    0.00000    0.05140    0.00000   -0.14300    0.00000  # c,c1,c1,c3h
dihedral_coeff	 9    0.00000    0.00000    0.03160    0.00000   -0.16810    0.00000  # c,c1,c1,hc
dihedral_coeff	10    0.71370    0.00000    0.26600    0.00000   -0.25450    0.00000  # c,c1,c1,o3e
dihedral_coeff	11    0.71370    0.00000    0.26600    0.00000   -0.25450    0.00000  # c,c1,c1,oc
dihedral_coeff	12    0.71370    0.00000    0.26600    0.00000   -0.25450    0.00000  # c,c1,c1,oh
dihedral_coeff	13   -0.52030    0.00000   -0.30280    0.00000   -0.34500    0.00000  # c,c1,o3e,c1
dihedral_coeff	14   -0.52030    0.00000   -0.30280    0.00000   -0.34500    0.00000  # c,c1,oc,c1
dihedral_coeff	15    0.00000    0.00000    0.05140    0.00000   -0.14300    0.00000  # c,c3h,c3h,c1
dihedral_coeff	16    0.00000    0.00000    0.03160    0.00000   -0.16810    0.00000  # c,c3h,c3h,hc
dihedral_coeff	17    0.71370    0.00000    0.26600    0.00000   -0.25450    0.00000  # c,c3h,c3h,o3e
dihedral_coeff	18   -0.52030    0.00000   -0.30280    0.00000   -0.34500    0.00000  # c,c3h,o3e,c3h
dihedral_coeff	19    0.00000    0.00000    0.05140    0.00000   -0.14300    0.00000  # c1,c,c,c1
dihedral_coeff	20    0.00000    0.00000    0.03160    0.00000   -0.16810    0.00000  # c1,c,c,hc
dihedral_coeff	21    0.00000    0.00000    0.05140    0.00000   -0.14300    0.00000  # c1,c,c1,c1
dihedral_coeff	22    0.00000    0.00000    0.03160    0.00000   -0.16810    0.00000  # c1,c,c1,hc
dihedral_coeff	23    0.71370    0.00000    0.26600    0.00000   -0.25450    0.00000  # c1,c,c1,o3e
dihedral_coeff	24    0.71370    0.00000    0.26600    0.00000   -0.25450    0.00000  # c1,c,c1,oc
dihedral_coeff	25    0.00000    0.00000    0.05140    0.00000   -0.14300    0.00000  # c1,c,c3h,c3h
dihedral_coeff	26    0.00000    0.00000    0.03160    0.00000   -0.16810    0.00000  # c1,c,c3h,hc
dihedral_coeff	27    0.71370    0.00000    0.26600    0.00000   -0.25450    0.00000  # c1,c,c3h,o3e
dihedral_coeff	28    0.00000    0.00000    0.05140    0.00000   -0.14300    0.00000  # c1,c1,c,c3h
dihedral_coeff	29    0.00000    0.00000    0.03160    0.00000   -0.16810    0.00000  # c1,c1,c,hc
dihedral_coeff	30    0.00000    0.00000    0.05140    0.00000   -0.14300    0.00000  # c1,c1,c1,c1
dihedral_coeff	31    0.00000    0.00000    0.05140    0.00000   -0.14300    0.00000  # c1,c1,c1,c3h
dihedral_coeff	32    0.00000    0.00000    0.03160    0.00000   -0.16810    0.00000  # c1,c1,c1,hc
dihedral_coeff	33    0.71370    0.00000    0.26600    0.00000   -0.25450    0.00000  # c1,c1,c1,o3e
dihedral_coeff	34    0.71370    0.00000    0.26600    0.00000   -0.25450    0.00000  # c1,c1,c1,oc
dihedral_coeff	35    0.71370    0.00000    0.26600    0.00000   -0.25450    0.00000  # c1,c1,c1,oh
dihedral_coeff	36    0.00000    0.00000    0.05140    0.00000   -0.14300    0.00000  # c1,c1,c3h,c3h
dihedral_coeff	37    0.00000    0.00000    0.03160    0.00000   -0.16810    0.00000  # c1,c1,c3h,hc
dihedral_coeff	38    0.71370    0.00000    0.26600    0.00000   -0.25450    0.00000  # c1,c1,c3h,o3e
dihedral_coeff	39   -0.52030    0.00000   -0.30280    0.00000   -0.34500    0.00000  # c1,c1,o3e,c1
dihedral_coeff	40   -0.52030    0.00000   -0.30280    0.00000   -0.34500    0.00000  # c1,c1,oc,c1
dihedral_coeff	41    0.00000    0.00000    0.00000    0.00000    0.13000  180.00000  # c1,c1,oh,h
dihedral_coeff	42    0.00000    0.00000    0.03160    0.00000   -0.16810    0.00000  # c1,c3h,c3h,hc
dihedral_coeff	43    0.71370    0.00000    0.26600    0.00000   -0.25450    0.00000  # c1,c3h,c3h,o3e
dihedral_coeff	44   -0.52030    0.00000   -0.30280    0.00000   -0.34500    0.00000  # c1,c3h,o3e,c3h
dihedral_coeff	45    0.53020    0.00000    0.00000    0.00000   -0.39660    0.00000  # c1,o3e,c1,hc
dihedral_coeff	46    0.53020    0.00000    0.00000    0.00000   -0.39660    0.00000  # c1,oc,c1,hc
dihedral_coeff	47    0.00000    0.00000    0.03160    0.00000   -0.16810    0.00000  # c3h,c,c1,hc
dihedral_coeff	48    0.00000    0.00000    0.03160    0.00000   -0.16810    0.00000  # c3h,c1,c1,hc
dihedral_coeff	49    0.00000    0.00000    0.03160    0.00000   -0.16810    0.00000  # c3h,c3h,c,hc
dihedral_coeff	50    0.00000    0.00000    0.03160    0.00000   -0.16810    0.00000  # c3h,c3h,c1,hc
dihedral_coeff	51    0.53020    0.00000    0.00000    0.00000   -0.39660    0.00000  # c3h,o3e,c3h,hc
dihedral_coeff	52    0.00000    0.00000    0.00000    0.00000    0.13000  180.00000  # h,oh,c1,hc
dihedral_coeff	53   -0.14320    0.00000    0.06170    0.00000   -0.10830    0.00000  # hc,c,c,hc
dihedral_coeff	54   -0.14320    0.00000    0.06170    0.00000   -0.10830    0.00000  # hc,c,c1,hc
dihedral_coeff	55   -0.14350    0.00000    0.25300    0.00000   -0.09050    0.00000  # hc,c,c1,o3e
dihedral_coeff	56   -0.14350    0.00000    0.25300    0.00000   -0.09050    0.00000  # hc,c,c1,oc
dihedral_coeff	57   -0.14320    0.00000    0.06170    0.00000   -0.10830    0.00000  # hc,c,c3h,hc
dihedral_coeff	58   -0.14350    0.00000    0.25300    0.00000   -0.09050    0.00000  # hc,c,c3h,o3e
dihedral_coeff	59   -0.14320    0.00000    0.06170    0.00000   -0.10830    0.00000  # hc,c1,c1,hc
dihedral_coeff	60   -0.14350    0.00000    0.25300    0.00000   -0.09050    0.00000  # hc,c1,c1,o3e
dihedral_coeff	61   -0.14350    0.00000    0.25300    0.00000   -0.09050    0.00000  # hc,c1,c1,oc
dihedral_coeff	62   -0.14350    0.00000    0.25300    0.00000   -0.09050    0.00000  # hc,c1,c1,oh
dihedral_coeff	63   -0.14320    0.00000    0.06170    0.00000   -0.10830    0.00000  # hc,c1,c3h,hc
dihedral_coeff	64   -0.14350    0.00000    0.25300    0.00000   -0.09050    0.00000  # hc,c1,c3h,o3e
dihedral_coeff	65   -0.14320    0.00000    0.06170    0.00000   -0.10830    0.00000  # hc,c3h,c3h,hc
dihedral_coeff	66   -0.14350    0.00000    0.25300    0.00000   -0.09050    0.00000  # hc,c3h,c3h,o3e
dihedral_coeff	67   -0.18200    0.00000   -0.10840    0.00000   -0.70470    0.00000  # oc,c1,c1,oc
dihedral_coeff	68   -0.18200    0.00000   -0.10840    0.00000   -0.70470    0.00000  # oc,c1,c1,oh

# MiddleBondTorsion Coeffs

dihedral_coeff	 1 mbt  -17.78700   -7.18770    0.00000    1.53000  # c,c,c1,c1
dihedral_coeff	 2 mbt  -14.87900   -3.65810   -0.31380    1.53000  # c,c,c1,hc
dihedral_coeff	 3 mbt  -21.88420   -7.67640   -0.68680    1.53000  # c,c,c1,oc
dihedral_coeff	 4 mbt  -17.78700   -7.18770    0.00000    1.53000  # c,c1,c,c1
dihedral_coeff	 5 mbt  -14.87900   -3.65810   -0.31380    1.53000  # c,c1,c,hc
dihedral_coeff	 6 mbt  -17.78700   -7.18770    0.00000    1.53000  # c,c1,c1,c
dihedral_coeff	 7 mbt  -17.78700   -7.18770    0.00000    1.53000  # c,c1,c1,c1
dihedral_coeff	 8 mbt  -17.78700   -7.18770    0.00000    1.53000  # c,c1,c1,c3h
dihedral_coeff	 9 mbt  -14.87900   -3.65810   -0.31380    1.53000  # c,c1,c1,hc
dihedral_coeff	10 mbt  -21.88420   -7.67640   -0.68680    1.53000  # c,c1,c1,o3e
dihedral_coeff	11 mbt  -21.88420   -7.67640   -0.68680    1.53000  # c,c1,c1,oc
dihedral_coeff	12 mbt  -21.88420   -7.67640   -0.68680    1.53000  # c,c1,c1,oh
dihedral_coeff	13 mbt   -5.92880   -2.70070   -0.31750    1.42000  # c,c1,o3e,c1
dihedral_coeff	14 mbt   -5.92880   -2.70070   -0.31750    1.42000  # c,c1,oc,c1
dihedral_coeff	15 mbt  -17.78700   -7.18770    0.00000    1.53000  # c,c3h,c3h,c1
dihedral_coeff	16 mbt  -14.87900   -3.65810   -0.31380    1.53000  # c,c3h,c3h,hc
dihedral_coeff	17 mbt  -21.88420   -7.67640   -0.68680    1.53000  # c,c3h,c3h,o3e
dihedral_coeff	18 mbt   -5.92880   -2.70070   -0.31750    1.42000  # c,c3h,o3e,c3h
dihedral_coeff	19 mbt  -17.78700   -7.18770    0.00000    1.53000  # c1,c,c,c1
dihedral_coeff	20 mbt  -14.87900   -3.65810   -0.31380    1.53000  # c1,c,c,hc
dihedral_coeff	21 mbt  -17.78700   -7.18770    0.00000    1.53000  # c1,c,c1,c1
dihedral_coeff	22 mbt  -14.87900   -3.65810   -0.31380    1.53000  # c1,c,c1,hc
dihedral_coeff	23 mbt  -21.88420   -7.67640   -0.68680    1.53000  # c1,c,c1,o3e
dihedral_coeff	24 mbt  -21.88420   -7.67640   -0.68680    1.53000  # c1,c,c1,oc
dihedral_coeff	25 mbt  -17.78700   -7.18770    0.00000    1.53000  # c1,c,c3h,c3h
dihedral_coeff	26 mbt  -14.87900   -3.65810   -0.31380    1.53000  # c1,c,c3h,hc
dihedral_coeff	27 mbt  -21.88420   -7.67640   -0.68680    1.53000  # c1,c,c3h,o3e
dihedral_coeff	28 mbt  -17.78700   -7.18770    0.00000    1.53000  # c1,c1,c,c3h
dihedral_coeff	29 mbt  -14.87900   -3.65810   -0.31380    1.53000  # c1,c1,c,hc
dihedral_coeff	30 mbt  -17.78700   -7.18770    0.00000    1.53000  # c1,c1,c1,c1
dihedral_coeff	31 mbt  -17.78700   -7.18770    0.00000    1.53000  # c1,c1,c1,c3h
dihedral_coeff	32 mbt  -14.87900   -3.65810   -0.31380    1.53000  # c1,c1,c1,hc
dihedral_coeff	33 mbt  -21.88420   -7.67640   -0.68680    1.53000  # c1,c1,c1,o3e
dihedral_coeff	34 mbt  -21.88420   -7.67640   -0.68680    1.53000  # c1,c1,c1,oc
dihedral_coeff	35 mbt  -21.88420   -7.67640   -0.68680    1.53000  # c1,c1,c1,oh
dihedral_coeff	36 mbt  -17.78700   -7.18770    0.00000    1.53000  # c1,c1,c3h,c3h
dihedral_coeff	37 mbt  -14.87900   -3.65810   -0.31380    1.53000  # c1,c1,c3h,hc
dihedral_coeff	38 mbt  -21.88420   -7.67640   -0.68680    1.53000  # c1,c1,c3h,o3e
dihedral_coeff	39 mbt   -5.92880   -2.70070   -0.31750    1.42000  # c1,c1,o3e,c1
dihedral_coeff	40 mbt   -5.92880   -2.70070   -0.31750    1.42000  # c1,c1,oc,c1
dihedral_coeff	41 mbt    0.00000    0.00000    0.00000    1.42000  # c1,c1,oh,h
dihedral_coeff	42 mbt  -14.87900   -3.65810   -0.31380    1.53000  # c1,c3h,c3h,hc
dihedral_coeff	43 mbt  -21.88420   -7.67640   -0.68680    1.53000  # c1,c3h,c3h,o3e
dihedral_coeff	44 mbt   -5.92880   -2.70070   -0.31750    1.42000  # c1,c3h,o3e,c3h
dihedral_coeff	45 mbt   -6.80070   -4.65460   -1.41010    1.42000  # c1,o3e,c1,hc
dihedral_coeff	46 mbt   -6.80070   -4.65460   -1.41010    1.42000  # c1,oc,c1,hc
dihedral_coeff	47 mbt  -14.87900   -3.65810   -0.31380    1.53000  # c3h,c,c1,hc
dihedral_coeff	48 mbt  -14.87900   -3.65810   -0.31380    1.53000  # c3h,c1,c1,hc
dihedral_coeff	49 mbt  -14.87900   -3.65810   -0.31380    1.53000  # c3h,c3h,c,hc
dihedral_coeff	50 mbt  -14.87900   -3.65810   -0.31380    1.53000  # c3h,c3h,c1,hc
dihedral_coeff	51 mbt   -6.80070   -4.65460   -1.41010    1.42000  # c3h,o3e,c3h,hc
dihedral_coeff	52 mbt    0.00000    0.00000    0.00000    1.42000  # h,oh,c1,hc
dihedral_coeff	53 mbt  -14.26100   -0.53220   -0.48640    1.53000  # hc,c,c,hc
dihedral_coeff	54 mbt  -14.26100   -0.53220   -0.48640    1.53000  # hc,c,c1,hc
dihedral_coeff	55 mbt  -16.79750   -1.22960   -0.27500    1.53000  # hc,c,c1,o3e
dihedral_coeff	56 mbt  -16.79750   -1.22960   -0.27500    1.53000  # hc,c,c1,oc
dihedral_coeff	57 mbt  -14.26100   -0.53220   -0.48640    1.53000  # hc,c,c3h,hc
dihedral_coeff	58 mbt  -16.79750   -1.22960   -0.27500    1.53000  # hc,c,c3h,o3e
dihedral_coeff	59 mbt  -14.26100   -0.53220   -0.48640    1.53000  # hc,c1,c1,hc
dihedral_coeff	60 mbt  -16.79750   -1.22960   -0.27500    1.53000  # hc,c1,c1,o3e
dihedral_coeff	61 mbt  -16.79750   -1.22960   -0.27500    1.53000  # hc,c1,c1,oc
dihedral_coeff	62 mbt  -16.79750   -1.22960   -0.27500    1.53000  # hc,c1,c1,oh
dihedral_coeff	63 mbt  -14.26100   -0.53220   -0.48640    1.53000  # hc,c1,c3h,hc
dihedral_coeff	64 mbt  -16.79750   -1.22960   -0.27500    1.53000  # hc,c1,c3h,o3e
dihedral_coeff	65 mbt  -14.26100   -0.53220   -0.48640    1.53000  # hc,c3h,c3h,hc
dihedral_coeff	66 mbt  -16.79750   -1.22960   -0.27500    1.53000  # hc,c3h,c3h,o3e
dihedral_coeff	67 mbt  -17.25850   -3.61570   -0.83640    1.53000  # oc,c1,c1,oc
dihedral_coeff	68 mbt  -17.25850   -3.61570   -0.83640    1.53000  # oc,c1,c1,oh

# EndBondTorsion Coeffs

dihedral_coeff	 1 ebt   -0.07320    0.00000    0.00000   -0.07320    0.00000    0.00000    1.53000    1.53000  # c,c,c1,c1
dihedral_coeff	 2 ebt    0.08140    0.05910    0.22190    0.24860    0.24220   -0.09250    1.53000    1.10100  # c,c,c1,hc
dihedral_coeff	 3 ebt    1.15380    0.84090   -0.91380   -0.31900    0.44110   -0.71740    1.53000    1.42000  # c,c,c1,oc
dihedral_coeff	 4 ebt   -0.07320    0.00000    0.00000   -0.07320    0.00000    0.00000    1.53000    1.53000  # c,c1,c,c1
dihedral_coeff	 5 ebt    0.08140    0.05910    0.22190    0.24860    0.24220   -0.09250    1.53000    1.10100  # c,c1,c,hc
dihedral_coeff	 6 ebt   -0.07320    0.00000    0.00000   -0.07320    0.00000    0.00000    1.53000    1.53000  # c,c1,c1,c
dihedral_coeff	 7 ebt   -0.07320    0.00000    0.00000   -0.07320    0.00000    0.00000    1.53000    1.53000  # c,c1,c1,c1
dihedral_coeff	 8 ebt   -0.07320    0.00000    0.00000   -0.07320    0.00000    0.00000    1.53000    1.53000  # c,c1,c1,c3h
dihedral_coeff	 9 ebt    0.08140    0.05910    0.22190    0.24860    0.24220   -0.09250    1.53000    1.10100  # c,c1,c1,hc
dihedral_coeff	10 ebt   -0.31900    0.44110   -0.71740    1.15380    0.84090   -0.91380    1.53000    1.42000  # c,c1,c1,o3e
dihedral_coeff	11 ebt    1.15380    0.84090   -0.91380   -0.31900    0.44110   -0.71740    1.53000    1.42000  # c,c1,c1,oc
dihedral_coeff	12 ebt    1.15380    0.84090   -0.91380   -0.31900    0.44110   -0.71740    1.53000    1.42000  # c,c1,c1,oh
dihedral_coeff	13 ebt    0.47410    1.26350    0.55760   -0.24560    1.05170   -0.77950    1.53000    1.42000  # c,c1,o3e,c1
dihedral_coeff	14 ebt    0.47410    1.26350    0.55760   -0.24560    1.05170   -0.77950    1.53000    1.42000  # c,c1,oc,c1
dihedral_coeff	15 ebt   -0.07320    0.00000    0.00000   -0.07320    0.00000    0.00000    1.53000    1.53000  # c,c3h,c3h,c1
dihedral_coeff	16 ebt    0.08140    0.05910    0.22190    0.24860    0.24220   -0.09250    1.53000    1.10100  # c,c3h,c3h,hc
dihedral_coeff	17 ebt   -0.31900    0.44110   -0.71740    1.15380    0.84090   -0.91380    1.53000    1.42000  # c,c3h,c3h,o3e
dihedral_coeff	18 ebt   -0.24560    1.05170   -0.77950    0.47410    1.26350    0.55760    1.53000    1.42000  # c,c3h,o3e,c3h
dihedral_coeff	19 ebt   -0.07320    0.00000    0.00000   -0.07320    0.00000    0.00000    1.53000    1.53000  # c1,c,c,c1
dihedral_coeff	20 ebt    0.24860    0.24220   -0.09250    0.08140    0.05910    0.22190    1.53000    1.10100  # c1,c,c,hc
dihedral_coeff	21 ebt   -0.07320    0.00000    0.00000   -0.07320    0.00000    0.00000    1.53000    1.53000  # c1,c,c1,c1
dihedral_coeff	22 ebt    0.24860    0.24220   -0.09250    0.08140    0.05910    0.22190    1.53000    1.10100  # c1,c,c1,hc
dihedral_coeff	23 ebt   -0.31900    0.44110   -0.71740    1.15380    0.84090   -0.91380    1.53000    1.42000  # c1,c,c1,o3e
dihedral_coeff	24 ebt   -0.31900    0.44110   -0.71740    1.15380    0.84090   -0.91380    1.53000    1.42000  # c1,c,c1,oc
dihedral_coeff	25 ebt   -0.07320    0.00000    0.00000   -0.07320    0.00000    0.00000    1.53000    1.53000  # c1,c,c3h,c3h
dihedral_coeff	26 ebt    0.24860    0.24220   -0.09250    0.08140    0.05910    0.22190    1.53000    1.10100  # c1,c,c3h,hc
dihedral_coeff	27 ebt   -0.31900    0.44110   -0.71740    1.15380    0.84090   -0.91380    1.53000    1.42000  # c1,c,c3h,o3e
dihedral_coeff	28 ebt   -0.07320    0.00000    0.00000   -0.07320    0.00000    0.00000    1.53000    1.53000  # c1,c1,c,c3h
dihedral_coeff	29 ebt    0.24860    0.24220   -0.09250    0.08140    0.05910    0.22190    1.53000    1.10100  # c1,c1,c,hc
dihedral_coeff	30 ebt   -0.07320    0.00000    0.00000   -0.07320    0.00000    0.00000    1.53000    1.53000  # c1,c1,c1,c1
dihedral_coeff	31 ebt   -0.07320    0.00000    0.00000   -0.07320    0.00000    0.00000    1.53000    1.53000  # c1,c1,c1,c3h
dihedral_coeff	32 ebt    0.24860    0.24220   -0.09250    0.08140    0.05910    0.22190    1.53000    1.10100  # c1,c1,c1,hc
dihedral_coeff	33 ebt   -0.31900    0.44110   -0.71740    1.15380    0.84090   -0.91380    1.53000    1.42000  # c1,c1,c1,o3e
dihedral_coeff	34 ebt   -0.31900    0.44110   -0.71740    1.15380    0.84090   -0.91380    1.53000    1.42000  # c1,c1,c1,oc
dihedral_coeff	35 ebt    1.15380    0.84090   -0.91380   -0.31900    0.44110   -0.71740    1.53000    1.42000  # c1,c1,c1,oh
dihedral_coeff	36 ebt   -0.07320    0.00000    0.00000   -0.07320    0.00000    0.00000    1.53000    1.53000  # c1,c1,c3h,c3h
dihedral_coeff	37 ebt    0.24860    0.24220   -0.09250    0.08140    0.05910    0.22190    1.53000    1.10100  # c1,c1,c3h,hc
dihedral_coeff	38 ebt   -0.31900    0.44110   -0.71740    1.15380    0.84090   -0.91380    1.53000    1.42000  # c1,c1,c3h,o3e
dihedral_coeff	39 ebt   -0.24560    1.05170   -0.77950    0.47410    1.26350    0.55760    1.53000    1.42000  # c1,c1,o3e,c1
dihedral_coeff	40 ebt   -0.24560    1.05170   -0.77950    0.47410    1.26350    0.55760    1.53000    1.42000  # c1,c1,oc,c1
dihedral_coeff	41 ebt    0.00000    0.00000    0.00000    0.00000    0.00000    0.00000    1.53000    0.96000  # c1,c1,oh,h
dihedral_coeff	42 ebt    0.24860    0.24220   -0.09250    0.08140    0.05910    0.22190    1.53000    1.10100  # c1,c3h,c3h,hc
dihedral_coeff	43 ebt   -0.31900    0.44110   -0.71740    1.15380    0.84090   -0.91380    1.53000    1.42000  # c1,c3h,c3h,o3e
dihedral_coeff	44 ebt   -0.24560    1.05170   -0.77950    0.47410    1.26350    0.55760    1.53000    1.42000  # c1,c3h,o3e,c3h
dihedral_coeff	45 ebt   -0.16200    0.15640   -1.14080   -0.60540    1.33390    0.96480    1.42000    1.10100  # c1,o3e,c1,hc
dihedral_coeff	46 ebt   -0.16200    0.15640   -1.14080   -0.60540    1.33390    0.96480    1.42000    1.10100  # c1,oc,c1,hc
dihedral_coeff	47 ebt    0.08140    0.05910    0.22190    0.24860    0.24220   -0.09250    1.53000    1.10100  # c3h,c,c1,hc
dihedral_coeff	48 ebt    0.08140    0.05910    0.22190    0.24860    0.24220   -0.09250    1.53000    1.10100  # c3h,c1,c1,hc
dihedral_coeff	49 ebt    0.08140    0.05910    0.22190    0.24860    0.24220   -0.09250    1.53000    1.10100  # c3h,c3h,c,hc
dihedral_coeff	50 ebt    0.08140    0.05910    0.22190    0.24860    0.24220   -0.09250    1.53000    1.10100  # c3h,c3h,c1,hc
dihedral_coeff	51 ebt   -0.60540    1.33390    0.96480   -0.16200    0.15640   -1.14080    1.42000    1.10100  # c3h,o3e,c3h,hc
dihedral_coeff	52 ebt    0.00000    0.00000    0.00000    0.00000    0.00000    0.00000    0.96000    1.10100  # h,oh,c1,hc
dihedral_coeff	53 ebt    0.21300    0.31200    0.07770    0.21300    0.31200    0.07770    1.10100    1.10100  # hc,c,c,hc
dihedral_coeff	54 ebt    0.21300    0.31200    0.07770    0.21300    0.31200    0.07770    1.10100    1.10100  # hc,c,c1,hc
dihedral_coeff	55 ebt    0.96810    0.95510    0.04360    0.59030    0.66690    0.85840    1.10100    1.42000  # hc,c,c1,o3e
dihedral_coeff	56 ebt    0.96810    0.95510    0.04360    0.59030    0.66690    0.85840    1.10100    1.42000  # hc,c,c1,oc
dihedral_coeff	57 ebt    0.21300    0.31200    0.07770    0.21300    0.31200    0.07770    1.10100    1.10100  # hc,c,c3h,hc
dihedral_coeff	58 ebt    0.96810    0.95510    0.04360    0.59030    0.66690    0.85840    1.10100    1.42000  # hc,c,c3h,o3e
dihedral_coeff	59 ebt    0.21300    0.31200    0.07770    0.21300    0.31200    0.07770    1.10100    1.10100  # hc,c1,c1,hc
dihedral_coeff	60 ebt    0.96810    0.95510    0.04360    0.59030    0.66690    0.85840    1.10100    1.42000  # hc,c1,c1,o3e
dihedral_coeff	61 ebt    0.96810    0.95510    0.04360    0.59030    0.66690    0.85840    1.10100    1.42000  # hc,c1,c1,oc
dihedral_coeff	62 ebt    0.59030    0.66690    0.85840    0.96810    0.95510    0.04360    1.10100    1.42000  # hc,c1,c1,oh
dihedral_coeff	63 ebt    0.21300    0.31200    0.07770    0.21300    0.31200    0.07770    1.10100    1.10100  # hc,c1,c3h,hc
dihedral_coeff	64 ebt    0.96810    0.95510    0.04360    0.59030    0.66690    0.85840    1.10100    1.42000  # hc,c1,c3h,o3e
dihedral_coeff	65 ebt    0.21300    0.31200    0.07770    0.21300    0.31200    0.07770    1.10100    1.10100  # hc,c3h,c3h,hc
dihedral_coeff	66 ebt    0.96810    0.95510    0.04360    0.59030    0.66690    0.85840    1.10100    1.42000  # hc,c3h,c3h,o3e
dihedral_coeff	67 ebt    1.01650    0.75530   -0.46090    1.01650    0.75530   -0.46090    1.42000    1.42000  # oc,c1,c1,oc
dihedral_coeff	68 ebt    1.01650    0.75530   -0.46090    1.01650    0.75530   -0.46090    1.42000    1.42000  # oc,c1,c1,oh

# AngleTorsion Coeffs

dihedral_coeff	 1 at    0.38860   -0.31390    0.13890    0.38860   -0.31390    0.13890  112.67000  112.67000  # c,c,c1,c1
dihedral_coeff	 2 at    0.31130    0.45160   -0.19880   -0.24540    0.00000   -0.11360  112.67000  110.77000  # c,c,c1,hc
dihedral_coeff	 3 at    0.96720   -0.75660   -1.23310    0.56230   -0.30410   -0.40150  112.67000  111.27000  # c,c,c1,oc
dihedral_coeff	 4 at    0.38860   -0.31390    0.13890    0.38860   -0.31390    0.13890  112.67000  112.67000  # c,c1,c,c1
dihedral_coeff	 5 at    0.31130    0.45160   -0.19880   -0.24540    0.00000   -0.11360  112.67000  110.77000  # c,c1,c,hc
dihedral_coeff	 6 at    0.38860   -0.31390    0.13890    0.38860   -0.31390    0.13890  112.67000  112.67000  # c,c1,c1,c
dihedral_coeff	 7 at    0.38860   -0.31390    0.13890    0.38860   -0.31390    0.13890  112.67000  112.67000  # c,c1,c1,c1
dihedral_coeff	 8 at    0.38860   -0.31390    0.13890    0.38860   -0.31390    0.13890  112.67000  112.67000  # c,c1,c1,c3h
dihedral_coeff	 9 at    0.31130    0.45160   -0.19880   -0.24540    0.00000   -0.11360  112.67000  110.77000  # c,c1,c1,hc
dihedral_coeff	10 at    0.56230   -0.30410   -0.40150    0.96720   -0.75660   -1.23310  112.67000  111.27000  # c,c1,c1,o3e
dihedral_coeff	11 at    0.96720   -0.75660   -1.23310    0.56230   -0.30410   -0.40150  112.67000  111.27000  # c,c1,c1,oc
dihedral_coeff	12 at    0.96720   -0.75660   -1.23310    0.56230   -0.30410   -0.40150  112.67000  111.27000  # c,c1,c1,oh
dihedral_coeff	13 at    0.56760    0.94500    0.07030   -2.74660    1.48770   -0.89550  111.27000  104.50000  # c,c1,o3e,c1
dihedral_coeff	14 at    0.56760    0.94500    0.07030   -2.74660    1.48770   -0.89550  111.27000  104.50000  # c,c1,oc,c1
dihedral_coeff	15 at    0.38860   -0.31390    0.13890    0.38860   -0.31390    0.13890  112.67000  112.67000  # c,c3h,c3h,c1
dihedral_coeff	16 at    0.31130    0.45160   -0.19880   -0.24540    0.00000   -0.11360  112.67000  110.77000  # c,c3h,c3h,hc
dihedral_coeff	17 at    0.56230   -0.30410   -0.40150    0.96720   -0.75660   -1.23310  112.67000  111.27000  # c,c3h,c3h,o3e
dihedral_coeff	18 at   -2.74660    1.48770   -0.89550    0.56760    0.94500    0.07030  111.27000  104.50000  # c,c3h,o3e,c3h
dihedral_coeff	19 at    0.38860   -0.31390    0.13890    0.38860   -0.31390    0.13890  112.67000  112.67000  # c1,c,c,c1
dihedral_coeff	20 at   -0.24540    0.00000   -0.11360    0.31130    0.45160   -0.19880  112.67000  110.77000  # c1,c,c,hc
dihedral_coeff	21 at    0.38860   -0.31390    0.13890    0.38860   -0.31390    0.13890  112.67000  112.67000  # c1,c,c1,c1
dihedral_coeff	22 at   -0.24540    0.00000   -0.11360    0.31130    0.45160   -0.19880  112.67000  110.77000  # c1,c,c1,hc
dihedral_coeff	23 at    0.56230   -0.30410   -0.40150    0.96720   -0.75660   -1.23310  112.67000  111.27000  # c1,c,c1,o3e
dihedral_coeff	24 at    0.56230   -0.30410   -0.40150    0.96720   -0.75660   -1.23310  112.67000  111.27000  # c1,c,c1,oc
dihedral_coeff	25 at    0.38860   -0.31390    0.13890    0.38860   -0.31390    0.13890  112.67000  112.67000  # c1,c,c3h,c3h
dihedral_coeff	26 at   -0.24540    0.00000   -0.11360    0.31130    0.45160   -0.19880  112.67000  110.77000  # c1,c,c3h,hc
dihedral_coeff	27 at    0.56230   -0.30410   -0.40150    0.96720   -0.75660   -1.23310  112.67000  111.27000  # c1,c,c3h,o3e
dihedral_coeff	28 at    0.38860   -0.31390    0.13890    0.38860   -0.31390    0.13890  112.67000  112.67000  # c1,c1,c,c3h
dihedral_coeff	29 at   -0.24540    0.00000   -0.11360    0.31130    0.45160   -0.19880  112.67000  110.77000  # c1,c1,c,hc
dihedral_coeff	30 at    0.38860   -0.31390    0.13890    0.38860   -0.31390    0.13890  112.67000  112.67000  # c1,c1,c1,c1
dihedral_coeff	31 at    0.38860   -0.31390    0.13890    0.38860   -0.31390    0.13890  112.67000  112.67000  # c1,c1,c1,c3h
dihedral_coeff	32 at   -0.24540    0.00000   -0.11360    0.31130    0.45160   -0.19880  112.67000  110.77000  # c1,c1,c1,hc
dihedral_coeff	33 at    0.56230   -0.30410   -0.40150    0.96720   -0.75660   -1.23310  112.67000  111.27000  # c1,c1,c1,o3e
dihedral_coeff	34 at    0.56230   -0.30410   -0.40150    0.96720   -0.75660   -1.23310  112.67000  111.27000  # c1,c1,c1,oc
dihedral_coeff	35 at    0.96720   -0.75660   -1.23310    0.56230   -0.30410   -0.40150  112.67000  111.27000  # c1,c1,c1,oh
dihedral_coeff	36 at    0.38860   -0.31390    0.13890    0.38860   -0.31390    0.13890  112.67000  112.67000  # c1,c1,c3h,c3h
dihedral_coeff	37 at   -0.24540    0.00000   -0.11360    0.31130    0.45160   -0.19880  112.67000  110.77000  # c1,c1,c3h,hc
dihedral_coeff	38 at    0.56230   -0.30410   -0.40150    0.96720   -0.75660   -1.23310  112.67000  111.27000  # c1,c1,c3h,o3e
dihedral_coeff	39 at   -2.74660    1.48770   -0.89550    0.56760    0.94500    0.07030  111.27000  104.50000  # c1,c1,o3e,c1
dihedral_coeff	40 at   -2.74660    1.48770   -0.89550    0.56760    0.94500    0.07030  111.27000  104.50000  # c1,c1,oc,c1
dihedral_coeff	41 at    0.00000    0.00000    0.00000    0.00000    0.00000    0.00000  111.27000  109.00000  # c1,c1,oh,h
dihedral_coeff	42 at   -0.24540    0.00000   -0.11360    0.31130    0.45160   -0.19880  112.67000  110.77000  # c1,c3h,c3h,hc
dihedral_coeff	43 at    0.56230   -0.30410   -0.40150    0.96720   -0.75660   -1.23310  112.67000  111.27000  # c1,c3h,c3h,o3e
dihedral_coeff	44 at   -2.74660    1.48770   -0.89550    0.56760    0.94500    0.07030  111.27000  104.50000  # c1,c3h,o3e,c3h
dihedral_coeff	45 at   -0.77770    0.43400   -0.66530   -1.82340    1.63930    0.51440  104.50000  108.72800  # c1,o3e,c1,hc
dihedral_coeff	46 at   -0.77770    0.43400   -0.66530   -1.82340    1.63930    0.51440  104.50000  108.72800  # c1,oc,c1,hc
dihedral_coeff	47 at    0.31130    0.45160   -0.19880   -0.24540    0.00000   -0.11360  112.67000  110.77000  # c3h,c,c1,hc
dihedral_coeff	48 at    0.31130    0.45160   -0.19880   -0.24540    0.00000   -0.11360  112.67000  110.77000  # c3h,c1,c1,hc
dihedral_coeff	49 at    0.31130    0.45160   -0.19880   -0.24540    0.00000   -0.11360  112.67000  110.77000  # c3h,c3h,c,hc
dihedral_coeff	50 at    0.31130    0.45160   -0.19880   -0.24540    0.00000   -0.11360  112.67000  110.77000  # c3h,c3h,c1,hc
dihedral_coeff	51 at   -1.82340    1.63930    0.51440   -0.77770    0.43400   -0.66530  104.50000  108.72800  # c3h,o3e,c3h,hc
dihedral_coeff	52 at    0.00000    0.00000    0.00000    0.00000    0.00000    0.00000  109.00000  108.72800  # h,oh,c1,hc
dihedral_coeff	53 at   -0.80850    0.55690   -0.24660   -0.80850    0.55690   -0.24660  110.77000  110.77000  # hc,c,c,hc
dihedral_coeff	54 at   -0.80850    0.55690   -0.24660   -0.80850    0.55690   -0.24660  110.77000  110.77000  # hc,c,c1,hc
dihedral_coeff	55 at    2.36680    2.49200   -1.01220   -0.18920    0.49180    0.72730  110.77000  111.27000  # hc,c,c1,o3e
dihedral_coeff	56 at    2.36680    2.49200   -1.01220   -0.18920    0.49180    0.72730  110.77000  111.27000  # hc,c,c1,oc
dihedral_coeff	57 at   -0.80850    0.55690   -0.24660   -0.80850    0.55690   -0.24660  110.77000  110.77000  # hc,c,c3h,hc
dihedral_coeff	58 at    2.36680    2.49200   -1.01220   -0.18920    0.49180    0.72730  110.77000  111.27000  # hc,c,c3h,o3e
dihedral_coeff	59 at   -0.80850    0.55690   -0.24660   -0.80850    0.55690   -0.24660  110.77000  110.77000  # hc,c1,c1,hc
dihedral_coeff	60 at    2.36680    2.49200   -1.01220   -0.18920    0.49180    0.72730  110.77000  111.27000  # hc,c1,c1,o3e
dihedral_coeff	61 at    2.36680    2.49200   -1.01220   -0.18920    0.49180    0.72730  110.77000  111.27000  # hc,c1,c1,oc
dihedral_coeff	62 at   -0.18920    0.49180    0.72730    2.36680    2.49200   -1.01220  110.77000  111.27000  # hc,c1,c1,oh
dihedral_coeff	63 at   -0.80850    0.55690   -0.24660   -0.80850    0.55690   -0.24660  110.77000  110.77000  # hc,c1,c3h,hc
dihedral_coeff	64 at    2.36680    2.49200   -1.01220   -0.18920    0.49180    0.72730  110.77000  111.27000  # hc,c1,c3h,o3e
dihedral_coeff	65 at   -0.80850    0.55690   -0.24660   -0.80850    0.55690   -0.24660  110.77000  110.77000  # hc,c3h,c3h,hc
dihedral_coeff	66 at    2.36680    2.49200   -1.01220   -0.18920    0.49180    0.72730  110.77000  111.27000  # hc,c3h,c3h,o3e
dihedral_coeff	67 at    0.55110    0.97370   -0.66730    0.55110    0.97370   -0.66730  111.27000  111.27000  # oc,c1,c1,oc
dihedral_coeff	68 at    0.55110    0.97370   -0.66730    0.55110    0.97370   -0.66730  111.27000  111.27000  # oc,c1,c1,oh

# AngleAngleTorsion Coeffs

dihedral_coeff	 1 aat  -22.04500  112.67000  112.67000  # c,c,c1,c1
dihedral_coeff	 2 aat  -16.16400  112.67000  110.77000  # c,c,c1,hc
dihedral_coeff	 3 aat  -29.04200  112.67000  111.27000  # c,c,c1,oc
dihedral_coeff	 4 aat  -22.04500  112.67000  112.67000  # c,c1,c,c1
dihedral_coeff	 5 aat  -16.16400  112.67000  110.77000  # c,c1,c,hc
dihedral_coeff	 6 aat  -22.04500  112.67000  112.67000  # c,c1,c1,c
dihedral_coeff	 7 aat  -22.04500  112.67000  112.67000  # c,c1,c1,c1
dihedral_coeff	 8 aat  -22.04500  112.67000  112.67000  # c,c1,c1,c3h
dihedral_coeff	 9 aat  -16.16400  112.67000  110.77000  # c,c1,c1,hc
dihedral_coeff	10 aat  -29.04200  112.67000  111.27000  # c,c1,c1,o3e
dihedral_coeff	11 aat  -29.04200  112.67000  111.27000  # c,c1,c1,oc
dihedral_coeff	12 aat  -29.04200  112.67000  111.27000  # c,c1,c1,oh
dihedral_coeff	13 aat  -19.00590  111.27000  104.50000  # c,c1,o3e,c1
dihedral_coeff	14 aat  -19.00590  111.27000  104.50000  # c,c1,oc,c1
dihedral_coeff	15 aat  -22.04500  112.67000  112.67000  # c,c3h,c3h,c1
dihedral_coeff	16 aat  -16.16400  112.67000  110.77000  # c,c3h,c3h,hc
dihedral_coeff	17 aat  -29.04200  112.67000  111.27000  # c,c3h,c3h,o3e
dihedral_coeff	18 aat  -19.00590  111.27000  104.50000  # c,c3h,o3e,c3h
dihedral_coeff	19 aat  -22.04500  112.67000  112.67000  # c1,c,c,c1
dihedral_coeff	20 aat  -16.16400  112.67000  110.77000  # c1,c,c,hc
dihedral_coeff	21 aat  -22.04500  112.67000  112.67000  # c1,c,c1,c1
dihedral_coeff	22 aat  -16.16400  112.67000  110.77000  # c1,c,c1,hc
dihedral_coeff	23 aat  -29.04200  112.67000  111.27000  # c1,c,c1,o3e
dihedral_coeff	24 aat  -29.04200  112.67000  111.27000  # c1,c,c1,oc
dihedral_coeff	25 aat  -22.04500  112.67000  112.67000  # c1,c,c3h,c3h
dihedral_coeff	26 aat  -16.16400  112.67000  110.77000  # c1,c,c3h,hc
dihedral_coeff	27 aat  -29.04200  112.67000  111.27000  # c1,c,c3h,o3e
dihedral_coeff	28 aat  -22.04500  112.67000  112.67000  # c1,c1,c,c3h
dihedral_coeff	29 aat  -16.16400  112.67000  110.77000  # c1,c1,c,hc
dihedral_coeff	30 aat  -22.04500  112.67000  112.67000  # c1,c1,c1,c1
dihedral_coeff	31 aat  -22.04500  112.67000  112.67000  # c1,c1,c1,c3h
dihedral_coeff	32 aat  -16.16400  112.67000  110.77000  # c1,c1,c1,hc
dihedral_coeff	33 aat  -29.04200  112.67000  111.27000  # c1,c1,c1,o3e
dihedral_coeff	34 aat  -29.04200  112.67000  111.27000  # c1,c1,c1,oc
dihedral_coeff	35 aat  -29.04200  112.67000  111.27000  # c1,c1,c1,oh
dihedral_coeff	36 aat  -22.04500  112.67000  112.67000  # c1,c1,c3h,c3h
dihedral_coeff	37 aat  -16.16400  112.67000  110.77000  # c1,c1,c3h,hc
dihedral_coeff	38 aat  -29.04200  112.67000  111.27000  # c1,c1,c3h,o3e
dihedral_coeff	39 aat  -19.00590  111.27000  104.50000  # c1,c1,o3e,c1
dihedral_coeff	40 aat  -19.00590  111.27000  104.50000  # c1,c1,oc,c1
dihedral_coeff	41 aat    0.00000  111.27000  109.00000  # c1,c1,oh,h
dihedral_coeff	42 aat  -16.16400  112.67000  110.77000  # c1,c3h,c3h,hc
dihedral_coeff	43 aat  -29.04200  112.67000  111.27000  # c1,c3h,c3h,o3e
dihedral_coeff	44 aat  -19.00590  111.27000  104.50000  # c1,c3h,o3e,c3h
dihedral_coeff	45 aat  -16.44380  104.50000  108.72800  # c1,o3e,c1,hc
dihedral_coeff	46 aat  -16.44380  104.50000  108.72800  # c1,oc,c1,hc
dihedral_coeff	47 aat  -16.16400  112.67000  110.77000  # c3h,c,c1,hc
dihedral_coeff	48 aat  -16.16400  112.67000  110.77000  # c3h,c1,c1,hc
dihedral_coeff	49 aat  -16.16400  112.67000  110.77000  # c3h,c3h,c,hc
dihedral_coeff	50 aat  -16.16400  112.67000  110.77000  # c3h,c3h,c1,hc
dihedral_coeff	51 aat  -16.44380  104.50000  108.72800  # c3h,o3e,c3h,hc
dihedral_coeff	52 aat    0.00000  109.00000  108.72800  # h,oh,c1,hc
dihedral_coeff	53 aat  -12.56400  110.77000  110.77000  # hc,c,c,hc
dihedral_coeff	54 aat  -12.56400  110.77000  110.77000  # hc,c,c1,hc
dihedral_coeff	55 aat  -20.20060  110.77000  111.27000  # hc,c,c1,o3e
dihedral_coeff	56 aat  -20.20060  110.77000  111.27000  # hc,c,c1,oc
dihedral_coeff	57 aat  -12.56400  110.77000  110.77000  # hc,c,c3h,hc
dihedral_coeff	58 aat  -20.20060  110.77000  111.27000  # hc,c,c3h,o3e
dihedral_coeff	59 aat  -12.56400  110.77000  110.77000  # hc,c1,c1,hc
dihedral_coeff	60 aat  -20.20060  110.77000  111.27000  # hc,c1,c1,o3e
dihedral_coeff	61 aat  -20.20060  110.77000  111.27000  # hc,c1,c1,oc
dihedral_coeff	62 aat  -20.20060  110.77000  111.27000  # hc,c1,c1,oh
dihedral_coeff	63 aat  -12.56400  110.77000  110.77000  # hc,c1,c3h,hc
dihedral_coeff	64 aat  -20.20060  110.77000  111.27000  # hc,c1,c3h,o3e
dihedral_coeff	65 aat  -12.56400  110.77000  110.77000  # hc,c3h,c3h,hc
dihedral_coeff	66 aat  -20.20060  110.77000  111.27000  # hc,c3h,c3h,o3e
dihedral_coeff	67 aat  -14.04840  111.27000  111.27000  # oc,c1,c1,oc
dihedral_coeff	68 aat  -14.04840  111.27000  111.27000  # oc,c1,c1,oh

# BondBond13 Coeffs

dihedral_coeff	 1 bb13    0.00000    1.53000    1.53000  # c,c,c1,c1
dihedral_coeff	 2 bb13    0.00000    1.53000    1.10100  # c,c,c1,hc
dihedral_coeff	 3 bb13    0.00000    1.53000    1.42000  # c,c,c1,oc
dihedral_coeff	 4 bb13    0.00000    1.53000    1.53000  # c,c1,c,c1
dihedral_coeff	 5 bb13    0.00000    1.53000    1.10100  # c,c1,c,hc
dihedral_coeff	 6 bb13    0.00000    1.53000    1.53000  # c,c1,c1,c
dihedral_coeff	 7 bb13    0.00000    1.53000    1.53000  # c,c1,c1,c1
dihedral_coeff	 8 bb13    0.00000    1.53000    1.53000  # c,c1,c1,c3h
dihedral_coeff	 9 bb13    0.00000    1.53000    1.10100  # c,c1,c1,hc
dihedral_coeff	10 bb13    0.00000    1.53000    1.42000  # c,c1,c1,o3e
dihedral_coeff	11 bb13    0.00000    1.53000    1.42000  # c,c1,c1,oc
dihedral_coeff	12 bb13    0.00000    1.53000    1.42000  # c,c1,c1,oh
dihedral_coeff	13 bb13    0.00000    1.53000    1.42000  # c,c1,o3e,c1
dihedral_coeff	14 bb13    0.00000    1.53000    1.42000  # c,c1,oc,c1
dihedral_coeff	15 bb13    0.00000    1.53000    1.53000  # c,c3h,c3h,c1
dihedral_coeff	16 bb13    0.00000    1.53000    1.10100  # c,c3h,c3h,hc
dihedral_coeff	17 bb13    0.00000    1.53000    1.42000  # c,c3h,c3h,o3e
dihedral_coeff	18 bb13    0.00000    1.53000    1.42000  # c,c3h,o3e,c3h
dihedral_coeff	19 bb13    0.00000    1.53000    1.53000  # c1,c,c,c1
dihedral_coeff	20 bb13    0.00000    1.53000    1.10100  # c1,c,c,hc
dihedral_coeff	21 bb13    0.00000    1.53000    1.53000  # c1,c,c1,c1
dihedral_coeff	22 bb13    0.00000    1.53000    1.10100  # c1,c,c1,hc
dihedral_coeff	23 bb13    0.00000    1.53000    1.42000  # c1,c,c1,o3e
dihedral_coeff	24 bb13    0.00000    1.53000    1.42000  # c1,c,c1,oc
dihedral_coeff	25 bb13    0.00000    1.53000    1.53000  # c1,c,c3h,c3h
dihedral_coeff	26 bb13    0.00000    1.53000    1.10100  # c1,c,c3h,hc
dihedral_coeff	27 bb13    0.00000    1.53000    1.42000  # c1,c,c3h,o3e
dihedral_coeff	28 bb13    0.00000    1.53000    1.53000  # c1,c1,c,c3h
dihedral_coeff	29 bb13    0.00000    1.53000    1.10100  # c1,c1,c,hc
dihedral_coeff	30 bb13    0.00000    1.53000    1.53000  # c1,c1,c1,c1
dihedral_coeff	31 bb13    0.00000    1.53000    1.53000  # c1,c1,c1,c3h
dihedral_coeff	32 bb13    0.00000    1.53000    1.10100  # c1,c1,c1,hc
dihedral_coeff	33 bb13    0.00000    1.53000    1.42000  # c1,c1,c1,o3e
dihedral_coeff	34 bb13    0.00000    1.53000    1.42000  # c1,c1,c1,oc
dihedral_coeff	35 bb13    0.00000    1.53000    1.42000  # c1,c1,c1,oh
dihedral_coeff	36 bb13    0.00000    1.53000    1.53000  # c1,c1,c3h,c3h
dihedral_coeff	37 bb13    0.00000    1.53000    1.10100  # c1,c1,c3h,hc
dihedral_coeff	38 bb13    0.00000    1.53000    1.42000  # c1,c1,c3h,o3e
dihedral_coeff	39 bb13    0.00000    1.53000    1.42000  # c1,c1,o3e,c1
dihedral_coeff	40 bb13    0.00000    1.53000    1.42000  # c1,c1,oc,c1
dihedral_coeff	41 bb13    0.00000    1.53000    0.96000  # c1,c1,oh,h
dihedral_coeff	42 bb13    0.00000    1.53000    1.10100  # c1,c3h,c3h,hc
dihedral_coeff	43 bb13    0.00000    1.53000    1.42000  # c1,c3h,c3h,o3e
dihedral_coeff	44 bb13    0.00000    1.53000    1.42000  # c1,c3h,o3e,c3h
dihedral_coeff	45 bb13    0.00000    1.42000    1.10100  # c1,o3e,c1,hc
dihedral_coeff	46 bb13    0.00000    1.42000    1.10100  # c1,oc,c1,hc
dihedral_coeff	47 bb13    0.00000    1.53000    1.10100  # c3h,c,c1,hc
dihedral_coeff	48 bb13    0.00000    1.53000    1.10100  # c3h,c1,c1,hc
dihedral_coeff	49 bb13    0.00000    1.53000    1.10100  # c3h,c3h,c,hc
dihedral_coeff	50 bb13    0.00000    1.53000    1.10100  # c3h,c3h,c1,hc
dihedral_coeff	51 bb13    0.00000    1.42000    1.10100  # c3h,o3e,c3h,hc
dihedral_coeff	52 bb13    0.00000    0.96000    1.10100  # h,oh,c1,hc
dihedral_coeff	53 bb13    0.00000    1.10100    1.10100  # hc,c,c,hc
dihedral_coeff	54 bb13    0.00000    1.10100    1.10100  # hc,c,c1,hc
dihedral_coeff	55 bb13    0.00000    1.10100    1.42000  # hc,c,c1,o3e
dihedral_coeff	56 bb13    0.00000    1.10100    1.42000  # hc,c,c1,oc
dihedral_coeff	57 bb13    0.00000    1.10100    1.10100  # hc,c,c3h,hc
dihedral_coeff	58 bb13    0.00000    1.10100    1.42000  # hc,c,c3h,o3e
dihedral_coeff	59 bb13    0.00000    1.10100    1.10100  # hc,c1,c1,hc
dihedral_coeff	60 bb13    0.00000    1.10100    1.42000  # hc,c1,c1,o3e
dihedral_coeff	61 bb13    0.00000    1.10100    1.42000  # hc,c1,c1,oc
dihedral_coeff	62 bb13    0.00000    1.10100    1.42000  # hc,c1,c1,oh
dihedral_coeff	63 bb13    0.00000    1.10100    1.10100  # hc,c1,c3h,hc
dihedral_coeff	64 bb13    0.00000    1.10100    1.42000  # hc,c1,c3h,o3e
dihedral_coeff	65 bb13    0.00000    1.10100    1.10100  # hc,c3h,c3h,hc
dihedral_coeff	66 bb13    0.00000    1.10100    1.42000  # hc,c3h,c3h,o3e
dihedral_coeff	67 bb13    0.00000    1.42000    1.42000  # oc,c1,c1,oc
dihedral_coeff	68 bb13    0.00000    1.42000    1.42000  # oc,c1,c1,oh

# Improper Coeffs

improper_coeff	 1    0.00000    0.00000  # c,c,c1,hc
improper_coeff	 2    0.00000    0.00000  # c,c,hc,c1
improper_coeff	 3    0.00000    0.00000  # c,c,hc,hc
improper_coeff	 4    0.00000    0.00000  # c,c1,c1,hc
improper_coeff	 5    0.00000    0.00000  # c,c1,hc,c3h
improper_coeff	 6    0.00000    0.00000  # c,c1,hc,hc
improper_coeff	 7    0.00000    0.00000  # c,c3h,hc,hc
improper_coeff	 8    0.00000    0.00000  # c1,c,c,c1
improper_coeff	 9    0.00000    0.00000  # c1,c,c,hc
improper_coeff	10    0.00000    0.00000  # c1,c,c1,c1
improper_coeff	11    0.00000    0.00000  # c1,c,c1,hc
improper_coeff	12    0.00000    0.00000  # c1,c,c1,oc
improper_coeff	13    0.00000    0.00000  # c1,c,hc,c1
improper_coeff	14    0.00000    0.00000  # c1,c,hc,oc
improper_coeff	15    0.00000    0.00000  # c1,c,o3e,c1
improper_coeff	16    0.00000    0.00000  # c1,c,o3e,hc
improper_coeff	17    0.00000    0.00000  # c1,c,oc,c1
improper_coeff	18    0.00000    0.00000  # c1,c,oc,hc
improper_coeff	19    0.00000    0.00000  # c1,c1,c1,c1
improper_coeff	20    0.00000    0.00000  # c1,c1,c1,c3h
improper_coeff	21    0.00000    0.00000  # c1,c1,c1,hc
improper_coeff	22    0.00000    0.00000  # c1,c1,c1,o3e
improper_coeff	23    0.00000    0.00000  # c1,c1,c1,oc
improper_coeff	24    0.00000    0.00000  # c1,c1,c1,oh
improper_coeff	25    0.00000    0.00000  # c1,c1,c3h,hc
improper_coeff	26    0.00000    0.00000  # c1,c1,hc,c3h
improper_coeff	27    0.00000    0.00000  # c1,c1,hc,o3e
improper_coeff	28    0.00000    0.00000  # c1,c1,hc,oc
improper_coeff	29    0.00000    0.00000  # c1,c1,hc,oh
improper_coeff	30    0.00000    0.00000  # c1,c1,o3e,hc
improper_coeff	31    0.00000    0.00000  # c1,c1,oc,hc
improper_coeff	32    0.00000    0.00000  # c3h,c,hc,c3h
improper_coeff	33    0.00000    0.00000  # c3h,c,o3e,c3h
improper_coeff	34    0.00000    0.00000  # c3h,c,o3e,hc
improper_coeff	35    0.00000    0.00000  # c3h,c1,c3h,hc
improper_coeff	36    0.00000    0.00000  # c3h,c1,c3h,o3e
improper_coeff	37    0.00000    0.00000  # c3h,c1,o3e,hc
improper_coeff	38    0.00000    0.00000  # c3h,c3h,o3e,hc

# AngleAngle Coeffs

improper_coeff	 1 aa    0.00000   -1.31990    0.00000  112.67000  110.77000  110.77000  # c,c,c1,hc
improper_coeff	 2 aa    0.00000   -1.31990    0.00000  110.77000  112.67000  110.77000  # c,c,hc,c1
improper_coeff	 3 aa    0.00000   -0.48250    0.00000  110.77000  110.77000  107.66000  # c,c,hc,hc
improper_coeff	 4 aa   -1.31990   -1.31990    0.11840  112.67000  110.77000  110.77000  # c,c1,c1,hc
improper_coeff	 5 aa    0.11840    0.00000   -1.31990  110.77000  112.67000  110.77000  # c,c1,hc,c3h
improper_coeff	 6 aa    0.27380   -0.48250    0.27380  110.77000  110.77000  107.66000  # c,c1,hc,hc
improper_coeff	 7 aa    0.00000   -0.48250    0.00000  110.77000  110.77000  107.66000  # c,c3h,hc,hc
improper_coeff	 8 aa    0.00000    0.00000   -0.17290  112.67000  112.67000  112.67000  # c1,c,c,c1
improper_coeff	 9 aa    0.00000    0.00000    0.11840  112.67000  110.77000  110.77000  # c1,c,c,hc
improper_coeff	10 aa    0.00000   -0.17290    0.00000  112.67000  112.67000  112.67000  # c1,c,c1,c1
improper_coeff	11 aa    0.00000   -1.31990    0.00000  112.67000  110.77000  110.77000  # c1,c,c1,hc
improper_coeff	12 aa    0.00000   -0.83300    0.00000  112.67000  111.27000  111.27000  # c1,c,c1,oc
improper_coeff	13 aa    0.00000   -1.31990    0.00000  110.77000  112.67000  110.77000  # c1,c,hc,c1
improper_coeff	14 aa    0.00000    2.59260    0.00000  110.77000  111.27000  108.72800  # c1,c,hc,oc
improper_coeff	15 aa    0.00000   -0.83300   -0.83300  111.27000  112.67000  111.27000  # c1,c,o3e,c1
improper_coeff	16 aa    0.00000    2.59260    3.91770  111.27000  110.77000  108.72800  # c1,c,o3e,hc
improper_coeff	17 aa    0.00000   -0.83300    0.00000  111.27000  112.67000  111.27000  # c1,c,oc,c1
improper_coeff	18 aa    0.00000    2.59260    0.00000  111.27000  110.77000  108.72800  # c1,c,oc,hc
improper_coeff	19 aa   -0.17290   -0.17290   -0.17290  112.67000  112.67000  112.67000  # c1,c1,c1,c1
improper_coeff	20 aa   -0.17290   -0.17290   -0.17290  112.67000  112.67000  112.67000  # c1,c1,c1,c3h
improper_coeff	21 aa   -1.31990   -1.31990    0.11840  112.67000  110.77000  110.77000  # c1,c1,c1,hc
improper_coeff	22 aa   -0.83300   -0.83300   -3.57440  112.67000  111.27000  111.27000  # c1,c1,c1,o3e
improper_coeff	23 aa   -0.83300   -0.83300   -3.57440  112.67000  111.27000  111.27000  # c1,c1,c1,oc
improper_coeff	24 aa    0.00000    0.00000   -3.57440  112.67000  111.27000  111.27000  # c1,c1,c1,oh
improper_coeff	25 aa   -1.31990    0.00000    0.11840  112.67000  110.77000  110.77000  # c1,c1,c3h,hc
improper_coeff	26 aa    0.11840    0.00000   -1.31990  110.77000  112.67000  110.77000  # c1,c1,hc,c3h
improper_coeff	27 aa    3.91770    2.59260    0.16890  110.77000  111.27000  108.72800  # c1,c1,hc,o3e
improper_coeff	28 aa    3.91770    2.59260    0.16890  110.77000  111.27000  108.72800  # c1,c1,hc,oc
improper_coeff	29 aa    0.00000    0.00000    0.16890  110.77000  111.27000  108.72800  # c1,c1,hc,oh
improper_coeff	30 aa    0.16890    2.59260    3.91770  111.27000  110.77000  108.72800  # c1,c1,o3e,hc
improper_coeff	31 aa    0.16890    2.59260    3.91770  111.27000  110.77000  108.72800  # c1,c1,oc,hc
improper_coeff	32 aa    0.11840    0.00000    0.00000  110.77000  112.67000  110.77000  # c3h,c,hc,c3h
improper_coeff	33 aa   -3.57440    0.00000   -0.83300  111.27000  112.67000  111.27000  # c3h,c,o3e,c3h
improper_coeff	34 aa    0.00000    2.59260    3.91770  111.27000  110.77000  108.72800  # c3h,c,o3e,hc
improper_coeff	35 aa   -1.31990    0.00000    0.11840  112.67000  110.77000  110.77000  # c3h,c1,c3h,hc
improper_coeff	36 aa   -0.83300    0.00000   -3.57440  112.67000  111.27000  111.27000  # c3h,c1,c3h,o3e
improper_coeff	37 aa    0.16890    2.59260    3.91770  111.27000  110.77000  108.72800  # c3h,c1,o3e,hc
improper_coeff	38 aa    0.00000    2.59260    0.00000  111.27000  110.77000  108.72800  # c3h,c3h,o3e,hc

# ------------------------------- OPT Section -------------------------------
minimize 1.0e-5 1.0e-7 100000 400000
Generated 28 of 28 mixed pair_coeff terms from sixthpower/geometric mixing rule
Neighbor list info ...
  update: every = 1 steps, delay = 0 steps, check = yes
  max neighbors/atom: 2000, page size: 100000
  master list distance cutoff = 12
  ghost atom cutoff = 12
  binsize = 6, bins = 8 8 8
  1 neighbor lists, perpetual/occasional/extra = 1 0 0
  (1) pair lj/class2/coul/cut, perpetual
      attributes: half, newton on
      pair build: half/bin/newton
      stencil: half/bin/3d
      bin: standard
Per MPI rank memory allocation (min/avg/max) = 29.34 | 29.48 | 29.75 Mbytes
   Step          Temp          E_pair         E_mol          TotEng         Press     
         0   0             -22.325571      44405.895      44383.569     -2942.0598    
        12   0             -21.022488      44367.344      44346.321     -2948.7336    
Loop time of 3.8912 on 6 procs for 12 steps with 3976 atoms

99.7% CPU use with 6 MPI tasks x no OpenMP threads

Minimization stats:
  Stopping criterion = energy tolerance
  Energy initial, next-to-last, final = 
      44383.5693121744   44346.3215985959   44346.3211874957
  Force two-norm initial, final = 7042.9613 34396.627
  Force max component initial, final = 2509.5732 19802.386
  Final line search alpha, max atom move = 8.6269171e-11 1.7083354e-06
  Iterations, force evaluations = 12 175

MPI task timing breakdown:
Section |  min time  |  avg time  |  max time  |%varavg| %total
---------------------------------------------------------------
Pair    | 0.23959    | 0.31609    | 0.47167    |  14.7 |  8.12
Bond    | 0.39654    | 0.65881    | 1.0709     |  26.0 | 16.93
Neigh   | 0          | 0          | 0          |   0.0 |  0.00
Comm    | 1.2678     | 1.9153     | 2.2772     |  23.6 | 49.22
Output  | 0          | 0          | 0          |   0.0 |  0.00
Modify  | 0          | 0          | 0          |   0.0 |  0.00
Other   |            | 1.001      |            |       | 25.73

Nlocal:        662.667 ave         783 max         604 min
Histogram: 1 1 2 1 0 0 0 0 0 1
Nghost:           4534 ave        4740 max        4430 min
Histogram: 1 2 1 0 1 0 0 0 0 1
Neighs:        98699.8 ave      136892 max       83685 min
Histogram: 4 0 0 0 0 1 0 0 0 1

Total # of neighbors = 592199
Ave neighs/atom = 148.94341
Ave special neighs/atom = 13.641348
Neighbor list builds = 0
Dangerous builds = 0
# ------------------------------- Run Section -------------------------------
#

thermo_style custom step temp pe evdwl ecoul ebond eangle edihed eimp density vol
thermo          100

neigh_modify delay 0 every 1 check yes

fix Langevin  all langevin 300 300 100.0 482432
fix moveLimit all nve/limit 0.1
run 10000
Generated 28 of 28 mixed pair_coeff terms from sixthpower/geometric mixing rule
Per MPI rank memory allocation (min/avg/max) = 28.21 | 28.35 | 28.63 Mbytes
   Step          Temp          PotEng         E_vdwl         E_coul         E_bond        E_angle        E_dihed        E_impro        Density         Volume    
        12   0              44346.321      164.09815     -185.12064      3763.8953      46610.501     -5910.8555     -96.197562      0.44999999     100038.64    
       100   403.64171      41185.656     -210.16846     -300.02456      2465.419       45671.596     -6170.9159     -270.25009      0.44999999     100038.64    
       200   345.9215       40303.457     -474.0591      -186.27613      2368.5215      44976.975     -6115.5388     -266.16517      0.44999999     100038.64    
       300   328.74636      39827.502     -542.82197     -320.06374      2356.0081      44723.179     -6123.708      -265.09223      0.44999999     100038.64    
       400   320.06222      39720.25      -577.06208     -326.96421      2373.5367      44662.033     -6142.0039     -269.28896      0.44999999     100038.64    
       500   329.56436      39969.563     -558.28241     -270.93605      2399.2679      44632.299     -5976.1636     -256.62121      0.44999999     100038.64    
       600   314.66289      39757.505     -577.7726      -276.07606      2356.0367      44566.352     -6042.6799     -268.35546      0.44999999     100038.64    
       700   324.68647      39720.424     -583.48585     -270.19368      2286.4408      44642.042     -6080.2681     -274.11092      0.44999999     100038.64    
       800   328.55693      39616.421     -602.7692      -307.75548      2339.9068      44576.145     -6117.6935     -271.4133       0.44999999     100038.64    
       900   306.24708      39782.254     -587.52395     -221.54157      2299.2993      44542.761     -5967.7838     -282.95639      0.44999999     100038.64    
      1000   308.73783      39855.721     -612.57999     -200.23062      2350.5848      44539.67      -5937.3835     -284.33969      0.44999999     100038.64    
      1100   311.76557      39669.804     -614.27208     -284.72699      2344.0754      44540.801     -6040.8329     -275.23988      0.44999999     100038.64    
      1200   307.13856      39601.134     -588.39674     -200.44759      2228.2005      44535.903     -6087.3027     -286.82218      0.44999999     100038.64    
      1300   311.47964      39439.464     -632.48605     -293.37781      2268.9011      44432.207     -6066.2252     -269.55507      0.44999999     100038.64    
      1400   297.44246      39561.325     -617.0778      -300.80063      2301.8726      44479.735     -6028.1667     -274.23692      0.44999999     100038.64    
      1500   306.02939      39471.916     -636.11603     -295.44536      2202.2081      44552.412     -6071.3858     -279.75606      0.44999999     100038.64    
      1600   298.87725      39476.216     -624.71168     -253.89864      2275.4631      44485.996     -6133.5346     -273.09896      0.44999999     100038.64    
      1700   311.34325      39509.329     -630.61794     -292.49565      2208.5635      44566.531     -6066.7453     -275.90653      0.44999999     100038.64    
      1800   300.52714      39409.747     -627.07253     -347.45965      2182.7587      44604.872     -6130.141      -273.21034      0.44999999     100038.64    
      1900   301.26268      39417.647     -642.46073     -337.28188      2201.6937      44603.377     -6128.5784     -279.10318      0.44999999     100038.64    
      2000   307.06993      39354.475     -608.32175     -279.17888      2210.2419      44442.275     -6149.0639     -261.47758      0.44999999     100038.64    
      2100   304.97422      39391.566     -611.22395     -301.70099      2179.0901      44448.635     -6047.8591     -275.37452      0.44999999     100038.64    
      2200   301.84092      39422.174     -642.63959     -309.46264      2253.7467      44509.929     -6119.7681     -269.63161      0.44999999     100038.64    
      2300   328.51451      39631.407     -606.13044     -385.83602      2338.8174      44509.064     -5955.2359     -269.27162      0.44999999     100038.64    
      2400   309.60985      39319.014     -613.68459     -448.97424      2244.1402      44444.231     -6033.6697     -273.02909      0.44999999     100038.64    
      2500   332.8664       39303.819     -649.1798      -393.00771      2223.7992      44396.432     -6002.4554     -271.76906      0.44999999     100038.64    
      2600   309.91555      39297.442     -619.99604     -376.12239      2254.3037      44198.602     -5893.4849     -265.86047      0.44999999     100038.64    
      2700   324.7892       39473.499     -662.82355     -262.7846       2252.8659      44246.781     -5830.3047     -270.2355       0.44999999     100038.64    
      2800   310.09898      39328.721     -683.65476     -291.06715      2155.0036      44093.077     -5687.6688     -256.96962      0.44999999     100038.64    
      2900   300.80118      39228.577     -685.05243     -312.65643      2173.4249      44164.597     -5843.2335     -268.50184      0.44999999     100038.64    
      3000   300.88955      39069.467     -660.89889     -368.79157      2104.4904      44168.435     -5902.6317     -271.13621      0.44999999     100038.64    
      3100   297.4322       39035.169     -687.56153     -380.20682      2162.1739      44021.495     -5817.6402     -263.09182      0.44999999     100038.64    
      3200   303.85672      39059.176     -694.82274     -333.23333      2137.9638      44132.13      -5913.1859     -269.67531      0.44999999     100038.64    
      3300   304.80328      39022.339     -649.64405     -380.97538      2177.9435      43994.131     -5846.4901     -272.6261       0.44999999     100038.64    
      3400   309.83902      39041.545     -691.09912     -372.38373      2162.8748      44076.159     -5859.0446     -274.96207      0.44999999     100038.64    
      3500   302.26226      39067.733     -670.43524     -370.74967      2103.0257      44123.415     -5848.7581     -268.76506      0.44999999     100038.64    
      3600   305.99139      39058.223     -665.81576     -364.7503       2136.0109      43985.762     -5751.7668     -281.21768      0.44999999     100038.64    
      3700   306.16335      38985.3       -685.87321     -334.48724      2103.6192      44052.426     -5872.7754     -277.60937      0.44999999     100038.64    
      3800   303.69354      39073.395     -680.2813      -314.16459      2160.7781      44139.621     -5965.4514     -267.10751      0.44999999     100038.64    
      3900   307.92076      39297.411     -658.58349     -269.72055      2298.3656      44011.879     -5805.0763     -279.45384      0.44999999     100038.64    
      4000   305.39272      39323.252     -698.2253      -258.78547      2262.54        43916         -5650.264      -248.01366      0.44999999     100038.64    
      4100   312.48474      39172.34      -694.33122     -294.61165      2238.4867      43884.768     -5691.7213     -270.25121      0.44999999     100038.64    
      4200   309.20167      38947.2       -718.1031      -251.43817      2128.5682      43661.613     -5606.5817     -266.85849      0.44999999     100038.64    
      4300   295.9774       38885.276     -706.11319     -284.24865      2074.8426      43735.493     -5663.6475     -271.05045      0.44999999     100038.64    
      4400   302.75621      38898.681     -731.88195     -350.72817      2087.8948      43813.54      -5654.1632     -265.97965      0.44999999     100038.64    
      4500   307.57014      38881.317     -687.22822     -345.07891      2140.5995      43704.401     -5661.7356     -269.64028      0.44999999     100038.64    
      4600   308.567        38879.808     -723.25226     -301.39396      2139.351       43639.829     -5614.0671     -260.65848      0.44999999     100038.64    
      4700   308.73173      38815.826     -732.198       -370.51043      2078.6524      43669.096     -5557.1761     -272.03864      0.44999999     100038.64    
      4800   300.94287      38901.52      -728.57005     -365.78084      2128.8634      43876.197     -5729.4694     -279.72024      0.44999999     100038.64    
      4900   302.22654      38728.39      -703.90808     -396.4412       2069.7524      43676.859     -5654.6755     -263.19642      0.44999999     100038.64    
      5000   299.65356      38826.239     -707.31857     -361.77617      2110.1185      43792.444     -5728.6673     -278.56124      0.44999999     100038.64    
      5100   305.22566      38843.537     -725.81084     -394.48542      2127.0662      43654.354     -5559.1156     -258.47072      0.44999999     100038.64    
      5200   305.18302      38879.436     -718.58264     -295.38985      2152.509       43580.765     -5589.2504     -250.61511      0.44999999     100038.64    
      5300   294.87573      38830.366     -714.08833     -355.57293      2029.7047      43700.133     -5581.0196     -248.79065      0.44999999     100038.64    
      5400   300.05905      38949.933     -709.63128     -332.07906      2150.9743      43806.408     -5707.7904     -257.94859      0.44999999     100038.64    
      5500   302.63165      38902.778     -698.94263     -332.17959      2153.5813      43573.625     -5534.6043     -258.70176      0.44999999     100038.64    
      5600   305.59972      38815.045     -713.86885     -307.7154       2158.9747      43671.112     -5726.3172     -267.14057      0.44999999     100038.64    
      5700   300.28973      38838.761     -685.4461      -333.71927      2162.4909      43761.098     -5790.9251     -274.73794      0.44999999     100038.64    
      5800   301.72686      38941.605     -727.74031     -288.41732      2161.5273      43801.089     -5729.4642     -275.38899      0.44999999     100038.64    
      5900   299.54517      38821.249     -737.96292     -372.55266      2139.022       43807.983     -5739.181      -276.05916      0.44999999     100038.64    
      6000   302.41104      38873.613     -723.84036     -304.42273      2141.6065      43866.797     -5826.4699     -280.05749      0.44999999     100038.64    
      6100   299.92947      38725.227     -734.06867     -358.13358      2073.0578      43683.359     -5657.8022     -281.18567      0.44999999     100038.64    
      6200   302.21305      38754.822     -745.55862     -306.61986      2069.3687      43649.999     -5639.1476     -273.21903      0.44999999     100038.64    
      6300   300.45948      38729.646     -739.61406     -388.92857      2166.4996      43604.672     -5640.0442     -272.93879      0.44999999     100038.64    
      6400   308.18397      38764.701     -728.33213     -333.71187      2093.4695      43702.795     -5707.9416     -261.578        0.44999999     100038.64    
      6500   304.33081      38822.46      -767.26943     -289.93383      2062.3483      43756.97      -5675.4433     -264.2121       0.44999999     100038.64    
      6600   306.00279      38691.201     -753.60955     -331.03113      2085.6007      43706.691     -5743.4585     -272.99165      0.44999999     100038.64    
      6700   302.05812      38720.71      -744.76        -330.77045      2137.9718      43662.302     -5735.7775     -268.25513      0.44999999     100038.64    
      6800   311.69197      38835.658     -771.47681     -268.68069      2087.4484      43680.452     -5633.5124     -258.57242      0.44999999     100038.64    
      6900   309.95237      38846.705     -746.83037     -316.09242      2091.9472      43730.361     -5645.0413     -267.63913      0.44999999     100038.64    
      7000   301.82835      38822.765     -728.4018      -308.26116      2131.5811      43632.187     -5634.5862     -269.75379      0.44999999     100038.64    
      7100   295.17666      38855.192     -746.34081     -283.03533      2192.7235      43698.818     -5733.601      -273.37252      0.44999999     100038.64    
      7200   303.41154      38742.298     -742.43561     -239.56545      2063.1979      43579.896     -5655.1268     -263.66791      0.44999999     100038.64    
      7300   302.15413      38793.061     -766.97104     -267.45415      2151.4467      43685.149     -5730.6626     -278.44715      0.44999999     100038.64    
      7400   298.9844       38789.529     -733.56353     -311.69273      2021.7303      43732.756     -5657.8772     -261.82369      0.44999999     100038.64    
      7500   299.13839      38926.084     -779.80992     -217.70259      2130.121       43814.97      -5740.7075     -280.78683      0.44999999     100038.64    
      7600   301.77773      38696.747     -760.99562     -346.16991      2095.8178      43678.033     -5712.7746     -257.16283      0.44999999     100038.64    
      7700   301.91304      38717.615     -740.87305     -331.60271      2071.5957      43644.359     -5653.6615     -272.20197      0.44999999     100038.64    
      7800   297.73944      38682.742     -756.60967     -381.40036      2164.0467      43712.404     -5791.7686     -263.93006      0.44999999     100038.64    
      7900   298.46986      38696.039     -747.96808     -371.61253      2153.5046      43624.454     -5698.0267     -264.31185      0.44999999     100038.64    
      8000   296.10214      38804.903     -762.96229     -327.09727      2113.2857      43780.857     -5726.2562     -272.92352      0.44999999     100038.64    
      8100   302.14333      38750.551     -767.27371     -309.87849      2119.598       43688.114     -5719.112      -260.8973       0.44999999     100038.64    
      8200   301.8637       38691.298     -760.56127     -352.48363      2070.7535      43600.278     -5600.7744     -265.91393      0.44999999     100038.64    
      8300   297.87596      38752.084     -814.99478     -325.83612      2172.4234      43668.175     -5676.2053     -271.47804      0.44999999     100038.64    
      8400   295.92069      38686.602     -762.17822     -403.18316      2116.2035      43682.604     -5673.3808     -273.46287      0.44999999     100038.64    
      8500   294.83308      38629.081     -770.79008     -407.17344      2102.1173      43704.374     -5711.6373     -287.80951      0.44999999     100038.64    
      8600   303.46902      38667.864     -818.03977     -439.92113      2153.0127      43661.89      -5619.8934     -269.18396      0.44999999     100038.64    
      8700   300.55661      38742.512     -775.30545     -314.16325      2086.4944      43615.109     -5591.9709     -277.65186      0.44999999     100038.64    
      8800   301.34738      38696.204     -800.70984     -340.08435      2108.7279      43728.347     -5725.2574     -274.81989      0.44999999     100038.64    
      8900   298.47371      38710.341     -798.06455     -355.58781      2133.8132      43528.29      -5531.2551     -266.85513      0.44999999     100038.64    
      9000   293.32974      38672.071     -788.46443     -395.36191      2101.1185      43669.52      -5631.1084     -283.6329       0.44999999     100038.64    
      9100   302.81709      38587.612     -800.0431      -399.40821      2072.7982      43585.094     -5609.8653     -260.96356      0.44999999     100038.64    
      9200   300.64121      38606.196     -775.3251      -435.60659      2054.7788      43591.725     -5563.4022     -265.97397      0.44999999     100038.64    
      9300   300.39142      38678.415     -810.90294     -407.78198      2168.3325      43598.517     -5615.7598     -253.98935      0.44999999     100038.64    
      9400   302.59097      38557.027     -777.82865     -433.16462      2045.4395      43628.354     -5630.9739     -274.79971      0.44999999     100038.64    
      9500   294.64925      38655.361     -775.75885     -391.52863      2095.021       43582.646     -5602.6272     -252.39061      0.44999999     100038.64    
      9600   303.40324      38729.317     -791.88049     -415.19271      2244.2585      43605.923     -5648.8538     -264.9376       0.44999999     100038.64    
      9700   296.25654      38701.766     -772.95838     -344.55672      2102.596       43685.182     -5681.4453     -287.05204      0.44999999     100038.64    
      9800   297.46466      38795.846     -773.12585     -303.50382      2150.4078      43672.548     -5681.3771     -269.10322      0.44999999     100038.64    
      9900   299.73886      38818.659     -798.87359     -226.48933      2120.1708      43659.459     -5668.6681     -266.93994      0.44999999     100038.64    
     10000   298.77456      38662.347     -755.42932     -331.16971      2038.7389      43530.246     -5558.8742     -261.16509      0.44999999     100038.64    
     10012   294.88094      38635.742     -761.02458     -398.12365      2089.9816      43583.681     -5609.4983     -269.27329      0.44999999     100038.64    
Loop time of 198.987 on 6 procs for 10000 steps with 3976 atoms

Performance: 4.342 ns/day, 5.527 hours/ns, 50.254 timesteps/s, 199.812 katom-step/s
99.7% CPU use with 6 MPI tasks x no OpenMP threads

MPI task timing breakdown:
Section |  min time  |  avg time  |  max time  |%varavg| %total
---------------------------------------------------------------
Pair    | 9.9507     | 13.001     | 17.416     |  63.8 |  6.53
Bond    | 19.852     | 30.24      | 41.542     | 118.8 | 15.20
Neigh   | 4.5262     | 4.8279     | 5.1919     |  11.5 |  2.43
Comm    | 107.76     | 123.9      | 136.65     |  82.4 | 62.27
Output  | 1.6826     | 1.7054     | 1.7289     |   1.4 |  0.86
Modify  | 0.33186    | 0.38751    | 0.44879    |   6.7 |  0.19
Other   |            | 24.92      |            |       | 12.53

Nlocal:        662.667 ave         813 max         597 min
Histogram: 3 0 1 0 1 0 0 0 0 1
Nghost:        4476.17 ave        4724 max        4337 min
Histogram: 1 1 1 1 1 0 0 0 0 1
Neighs:        99929.5 ave      141366 max       77039 min
Histogram: 1 2 0 1 0 1 0 0 0 1

Total # of neighbors = 599577
Ave neighs/atom = 150.79904
Ave special neighs/atom = 13.641348
Neighbor list builds = 304
Dangerous builds = 0
unfix Langevin
unfix moveLimit


fix 		relax all npt temp 300.0 300.0 100 iso 1.0 1.0 1000
run 50000
Generated 28 of 28 mixed pair_coeff terms from sixthpower/geometric mixing rule
Per MPI rank memory allocation (min/avg/max) = 28.21 | 28.42 | 28.63 Mbytes
   Step          Temp          PotEng         E_vdwl         E_coul         E_bond        E_angle        E_dihed        E_impro        Density         Volume    
     10012   294.88094      38635.742     -761.02458     -398.12365      2089.9816      43583.681     -5609.4983     -269.27329      0.44999999     100038.64    
     10100   297.07537      38685.208     -804.14867     -350.38814      2143.5305      43665.377     -5704.7278     -264.43489      0.45086595     99846.505    
     10200   303.08528      38751.466     -800.12177     -304.79749      2139.0516      43692.218     -5698.0794     -276.80464      0.45386177     99187.444    
     10300   306.97313      38702.325     -820.21153     -324.43106      2150.2733      43690.172     -5712.9155     -280.56195      0.45848373     98187.539    
     10400   303.35095      38682.39      -822.85609     -324.99397      2106.9762      43630.65      -5634.6311     -272.75438      0.46373984     97074.663    
     10500   300.51326      38616.243     -859.20964     -359.33809      2085.3846      43706.233     -5684.4004     -272.42633      0.46829756     96129.882    
     10600   298.71474      38587.814     -806.32963     -345.45537      2090.2339      43500.236     -5585.1732     -265.69774      0.4724983      95275.241    
     10700   297.06701      38573.575     -852.06296     -359.61933      2061.9481      43615.852     -5633.7516     -258.79112      0.47626802     94521.125    
     10800   300.82091      38502.039     -863.6979      -382.80071      2069.7161      43568.542     -5621.4242     -268.29632      0.48027595     93732.341    
     10900   296.05756      38597.738     -874.04581     -391.13651      2094.701       43615.826     -5588.7489     -258.85875      0.48461701     92892.713    
     11000   302.42938      38528.716     -844.54078     -430.40981      2087.2564      43600.867     -5607.6863     -276.77082      0.48870262     92116.12     
     11100   301.20236      38517.771     -876.07389     -411.35078      2038.1882      43707.257     -5659.2014     -281.04826      0.49245731     91413.79     
     11200   300.87973      38425.454     -875.93721     -413.81669      2097.6091      43440.226     -5564.3311     -258.29532      0.49582781     90792.383    
     11300   299.61641      38368.568     -855.95096     -452.66952      1994.8329      43477.725     -5532.2846     -263.08452      0.49913335     90191.105    
     11400   303.18803      38350.33      -905.78453     -446.99891      2092.0224      43543.619     -5667.4757     -265.05199      0.50246874     89592.416    
     11500   302.22937      38328.948     -898.99509     -546.3931       2015.9965      43742.526     -5712.0667     -272.11932      0.50625547     88922.276    
     11600   306.37898      38492.402     -924.67083     -405.43208      2136.5385      43541.872     -5589.2711     -266.63494      0.51012679     88247.452    
     11700   314.11373      38450.754     -899.63448     -420.43142      2077.605       43592.074     -5628.6047     -270.25458      0.51410748     87564.159    
     11800   303.81518      38481.719     -941.03534     -362.76873      2062.6865      43632.274     -5655.579      -253.85802      0.51804799     86898.106    
[...]
     58800   303.0673       37171.364     -2023.1864     -504.25888      2009.4099      43602.279     -5640.296      -272.58346      1.0882077      41368.38     
     58900   296.91642      37291.394     -1975.9454     -489.16865      2101.2785      43440.022     -5515.5502     -269.24198      1.0889023      41341.992    
     59000   305.022        37175.104     -1982.9589     -600.882        2072.4977      43579.611     -5624.5513     -268.6126       1.0918661      41229.771    
     59100   307.10616      37241.556     -1960.1011     -541.19004      2056.6353      43554.589     -5601.6017     -266.77584      1.0957439      41083.861    
     59200   303.27662      37272.329     -1981.9028     -459.27794      2009.125       43639.441     -5669.3093     -265.74655      1.0986546      40975.016    
     59300   296.59941      37284.318     -1959.062      -473.70721      2057.5873      43559.3       -5620.4656     -279.33495      1.0986032      40976.932    
     59400   298.34131      37176.373     -2045.4814     -553.13206      2062.8838      43503.064     -5530.0729     -260.8879       1.0963717      41060.334    
     59500   299.50703      37107.098     -2022.3994     -620.85165      2043.772       43530.345     -5553.1229     -270.64455      1.095704       41085.357    
     59600   301.73854      37290.572     -1985.6375     -457.07192      2059.755       43669.391     -5722.9771     -272.88797      1.0973339      41024.331    
     59700   303.35099      37314.378     -1970.7049     -488.03039      2016.6135      43668.84      -5643.8701     -268.47024      1.0984516      40982.587    
     59800   302.78692      37407.894     -2005.3279     -403.73349      2104.1524      43551.342     -5570.6761     -267.86282      1.0981311      40994.549    
     59900   295.75978      37234.994     -1988.9998     -553.57504      2038.4945      43634.886     -5629.156      -266.65593      1.0967871      41044.782    
     60000   295.18485      37123.175     -1947.6113     -640.01676      2106.5312      43463.884     -5591.1708     -268.44178      1.0940065      41149.107    
     60012   299.68472      37086.823     -1948.2671     -622.55558      2091.3769      43452.646     -5628.6944     -257.68302      1.0935205      41167.394    
Loop time of 1498.3 on 6 procs for 50000 steps with 3976 atoms

Performance: 2.883 ns/day, 8.324 hours/ns, 33.371 timesteps/s, 132.683 katom-step/s
99.7% CPU use with 6 MPI tasks x no OpenMP threads

MPI task timing breakdown:
Section |  min time  |  avg time  |  max time  |%varavg| %total
---------------------------------------------------------------
Pair    | 117.3      | 135.23     | 157.93     | 147.9 |  9.03
Bond    | 149.21     | 175.1      | 224.85     | 195.0 | 11.69
Neigh   | 28.268     | 31.64      | 35.061     |  57.5 |  2.11
Comm    | 685.67     | 753.01     | 786.84     | 134.9 | 50.26
Output  | 5.5821     | 5.6321     | 5.6709     |   1.4 |  0.38
Modify  | 324.59     | 335.05     | 347.81     |  41.8 | 22.36
Other   |            | 62.64      |            |       |  4.18

Nlocal:        662.667 ave         672 max         642 min
Histogram: 1 0 0 0 0 0 1 1 1 2
Nghost:        7637.33 ave        7682 max        7607 min
Histogram: 1 0 3 0 0 0 0 1 0 1
Neighs:         226714 ave      240687 max      203724 min
Histogram: 1 0 0 1 0 0 1 1 0 2

Total # of neighbors = 1360282
Ave neighs/atom = 342.12324
Ave special neighs/atom = 13.641348
Neighbor list builds = 1551
Dangerous builds = 0
unfix relax

molecule 	pre1 pre1
Read molecule template pre1:
  1 molecules
  0 fragments
  33 atoms with max type 7
  35 bonds with max type 13
  70 angles with max type 35
  112 dihedrals with max type 66
  44 impropers with max type 38
molecule	post1 post1
Read molecule template post1:
  1 molecules
  0 fragments
  33 atoms with max type 7
  35 bonds with max type 9
  70 angles with max type 33
  115 dihedrals with max type 67
  44 impropers with max type 31
molecule 	pre2 pre2
Read molecule template pre2:
  1 molecules
  0 fragments
  40 atoms with max type 7
  44 bonds with max type 13
  93 angles with max type 35
  162 dihedrals with max type 66
  60 impropers with max type 38
molecule	post2 post2
Read molecule template post2:
  1 molecules
  0 fragments
  40 atoms with max type 7
  44 bonds with max type 9
  93 angles with max type 33
  165 dihedrals with max type 67
  60 impropers with max type 31
molecule 	pre3 pre3
Read molecule template pre3:
  1 molecules
  0 fragments
  34 atoms with max type 7
  37 bonds with max type 9
  76 angles with max type 33
  126 dihedrals with max type 61
  48 impropers with max type 30
molecule	post3 post3
Read molecule template post3:
  1 molecules
  0 fragments
  34 atoms with max type 7
  37 bonds with max type 9
  76 angles with max type 33
  129 dihedrals with max type 67
  48 impropers with max type 31
molecule 	pre4 pre4
Read molecule template pre4:
  1 molecules
  0 fragments
  32 atoms with max type 7
  34 bonds with max type 9
  69 angles with max type 33
  111 dihedrals with max type 61
  44 impropers with max type 30
molecule	post4 post4
Read molecule template post4:
  1 molecules
  0 fragments
  32 atoms with max type 7
  34 bonds with max type 9
  69 angles with max type 33
  114 dihedrals with max type 67
  44 impropers with max type 31

fix		fxrct all bond/react stabilization yes statted_grp .03 		 react rxn1 all 100 0.0 4.0 pre1 post1 semi.map1 stabilize_steps 10 molecule inter 		 react rxn2 all 100 0.0 4.0 pre2 post2 semi.map2 stabilize_steps 10 molecule inter 		 react rxn2 all 100 0.0 4.0 pre3 post3 semi.map3 stabilize_steps 10 molecule inter 		 react rxn2 all 100 0.0 4.0 pre4 post4 semi.map4 stabilize_steps 10 molecule inter
dynamic group bond_react_MASTER_group defined
dynamic group statted_grp_REACT defined
fix 		npt statted_grp_REACT npt temp 500.0 500.0 100 iso 1.0 1.0 1000
fix 		reacted bond_react_MASTER_group temp/rescale 1 300.0 300.0 1 1

fix 		moveLimit all nve/limit 0.1

thermo_style custom step temp pe evdwl ecoul ebond eangle edihed eimp density vol f_fxrct[*]
thermo     100


compute 1 all property/local btype batom1 batom2

dump DumpPos all custom 1000 dump.pos id type x y z mol
dump DumpBond all local 1000 bonds.dump index c_1[*]

run 500000

CITE-CITE-CITE-CITE-CITE-CITE-CITE-CITE-CITE-CITE-CITE-CITE-CITE

Your simulation uses code contributions which should be cited:

- fix bond/react: reacter.org doi:10.1016/j.polymer.2017.09.038, doi:10.1021/acs.macromol.0c02012

@Article{Gissinger17,
 author = {J. R. Gissinger and B. D. Jensen and K. E. Wise},
 title = {Modeling Chemical Reactions in Classical Molecular Dynamics Simulations},
 journal = {Polymer},
 year =    2017,
 volume =  128,
 pages =   {211--217}
}

@Article{Gissinger20,
 author = {J. R. Gissinger, B. D. Jensen, K. E. Wise},
 title = {{REACTER}: A Heuristic Method for Reactive Molecular Dynamics},
 journal = {Macromolecules},
 year =    2020,
 volume =  53,
 number =  22,
 pages =   {9953--9961}
}

CITE-CITE-CITE-CITE-CITE-CITE-CITE-CITE-CITE-CITE-CITE-CITE-CITE

Generated 28 of 28 mixed pair_coeff terms from sixthpower/geometric mixing rule
Neighbor list info ...
  update: every = 1 steps, delay = 0 steps, check = yes
  max neighbors/atom: 2000, page size: 100000
  master list distance cutoff = 12
  ghost atom cutoff = 12
  binsize = 6, bins = 6 6 6
  2 neighbor lists, perpetual/occasional/extra = 1 1 0
  (1) pair lj/class2/coul/cut, perpetual
      attributes: half, newton on
      pair build: half/bin/newton
      stencil: half/bin/3d
      bin: standard
  (2) fix bond/react, occasional, copy from (1)
      attributes: half, newton on
      pair build: copy
      stencil: none
      bin: none
Per MPI rank memory allocation (min/avg/max) = 31.76 | 31.78 | 31.78 Mbytes
   Step          Temp          PotEng         E_vdwl         E_coul         E_bond        E_angle        E_dihed        E_impro        Density         Volume       f_fxrct[1]     f_fxrct[2]     f_fxrct[3]     f_fxrct[4]  
     60012   299.68472      37086.823     -1948.2671     -622.55558      2091.3769      43452.646     -5628.6944     -257.68302      1.0935205      41167.394      0              0              0              0            
     60100   1887.3782      234120.72      8292.9673     -551.29491      184558.78      47136.553     -5015.8186     -300.46135      1.0908973      41266.384      0              0              0              2            
     60200   4191.3227      305705.66     -759.44199     -543.91148      260360.43      51086.902     -4016.4279     -421.8985       1.1317028      39778.456      0              0              0              3            
     60300   5964.6264      103735.45     -1222.718      -556.76594      54347.754      55431.904     -3780.0473     -484.67786      1.1767267      38256.452      0              0              0              3            
     60400   6288.4253      106275.58     -1388.1489     -500.06024      56268.164      56025.512     -3639.127      -490.75997      1.1604543      38792.902      0              0              0              3            
     60500   5952.3019      105431.39     -1312.0568     -368.82311      54963.006      56068.323     -3431.8251     -487.23055      1.1346484      39675.189      0              0              0              3            
     60600   6073.6997      103998.51     -1361.2569     -499.83373      54210.423      56046.163     -3929.8437     -467.14604      1.1153995      40359.88       0              0              0              3            
     60700   5873.9326      105909.3      -1416.3403     -576.8836       56725.705      55338.054     -3668.6611     -492.57336      1.1015432      40867.566      0              0              0              3            
     60800   5977.8287      102623.04     -1494.105      -469.14433      53153.374      55041.461     -3149.8096     -458.74047      1.0912745      41252.122      0              0              0              3            
     60900   5847.7793      103704.43     -1396.17       -484.03983      55115.072      54654.38      -3664.8548     -519.96143      1.0833219      41554.951      0              0              0              3            
     61000   5793.6008      103076.8      -1259.3173     -507.62431      54248.349      54816.182     -3726.6148     -494.17752      1.0761325      41832.571      0              0              0              3            
     61100   5747.5886      99798.052     -1392.9005     -467.73321      52467.27       53685.351     -4002.5917     -491.34303      1.0680978      42147.255      0              0              0              3            
     61200   5480.9869      103980.45     -1399.0516     -331.10922      56372.13       53957.983     -4087.1713     -532.33582      1.0590822      42506.037      0              0              0              3            
     61300   6040.51        100390.93     -1264.4093     -427.8297       53533.194      53421.216     -4353.8962     -517.34195      1.0494652      42895.552      0              0              0              3            
     61400   5705.3724      102048.5      -1295.1819     -469.74626      55070.996      53310.134     -4082.2009     -485.50167      1.0400765      43282.768      0              0              0              3            
     61500   5852.9006      99887.418     -1300.4065     -481.47351      53009.733      53499.295     -4338.4251     -501.30493      1.0307022      43676.427      0              0              0              3            
     61600   5424.8679      103852.64     -1356.6874     -527.07618      56512.248      54158.329     -4446.8441     -487.33013      1.0216849      44061.911      0              0              0              3            
     61700   5919.8613      97245.815     -1286.8732     -344.33654      50846.615      53034.614     -4494.7536     -509.4506       1.0135408      44415.962      0              0              0              3            
     61800   5841.7774      97604.097     -1264.891      -416.9393       51360.094      52405.775     -3967.4908     -512.45135      1.0063451      44733.55       0              0              0              3            
     61900   5960.1354      98439.444     -1287.2953     -412.87445      52097.179      52251.338     -3682.7499     -526.153        0.99901257     45061.884      0              0              0              3            
     62000   5420.4635      102099.97     -1207.4267     -315.3353       55868.15       52290.532     -4056.0476     -479.90397      0.99264837     45350.791      0              0              0              3            
     62100   5571.2682      100639.12     -1266.1795     -381.7919       54938.178      52179.291     -4344.3437     -486.03129      0.98591885     45660.339      0              0              0              3            
     62200   5465.5505      98371.785     -1253.9477     -293.43349      52453.681      52393.763     -4419.0064     -509.27143      0.97881165     45991.881      0              0              0              3            
     62300   5305.487       96363.473     -1203.4295     -321.99577      51147.599      51297.724     -4051.3519     -505.07312      0.97174077     46326.541      0              0              0              3            
     62400   5773.4687      92931.387     -1186.7916     -333.42881      47648.562      51565.587     -4236.3694     -526.17116      0.96413769     46691.867      0              0              0              3            
     62500   5579.2233      94908.547     -1171.8481     -195.39184      50217.792      51490.445     -4916.8778     -515.57246      0.95655788     47061.856      0              0              0              3            
     62600   5607.6395      92893.398     -1134.0831     -151.01605      48103.241      50955.277     -4390.3948     -489.62595      0.94863955     47454.683      0              0              0              3            
     62700   5398.2867      95381.206     -1198.9117     -182.96807      49969.478      51679.785     -4384.6645     -501.51288      0.93991344     47895.25       0              0              0              3            
     62800   5479.4117      95165.226     -1123.6348     -329.71968      50319.463      51009.065     -4224.8581     -485.08953      0.93152853     48326.366      0              0              0              3            
     62900   5426.8389      93284.078     -1097.2266     -264.93235      48914.404      50690.425     -4446.6379     -511.95461      0.92399262     48720.507      0              0              0              3            
     63000   5163.5772      98172.091     -1049.7387     -282.64253      53791.629      51004.771     -4790.295      -501.63321      0.91664271     49111.162      0              0              0              3            
     63100   5158.8555      95336.548     -1054.4494     -155.69812      50503.294      51397.391     -4835.6622     -518.32668      0.90876402     49536.94       0              0              0              3            
     63200   5012.9249      96826.107     -1114.6861     -323.90334      52321.956      51381.602     -4954.2372     -484.62337      0.90242846     49884.717      0              0              0              3            
     63300   5391.7572      90629.21      -1103.5857     -325.65012      46593.673      50753.973     -4806.1372     -483.06349      0.89714765     50178.35       0              0              0              3            
     63400   5068.3428      93931.712     -1077.0351     -319.59994      49408.017      50652.277     -4231.9363     -500.01023      0.8925342      50437.718      0              0              0              3            
     63500   5013.1819      95752.328     -1032.5091     -285.63928      51676.922      50650.717     -4755.289      -501.87413      0.88791256     50700.25       0              0              0              3            
     63600   5108.1737      94129.312     -1025.2306     -358.84543      50318.011      50226.572     -4519.8202     -511.37568      0.88328734     50965.735      0              0              0              3            
     63700   5208.6381      90927.832     -1033.2493     -461.181        47539.707      50138.745     -4741.7639     -514.42541      0.87801162     51271.974      0              0              0              3            
     63800   5208.8419      90354.274     -1050.9469     -447.53124      46663.291      50310.555     -4624.1076     -496.98622      0.87222734     51611.99       0              0              0              3            
     63900   4943.6696      91916.931     -953.97344     -413.22428      48452.066      50193.47      -4864.1336     -497.27394      0.86644176     51956.624      0              0              0              3            
     64000   5197.8067      90470.474     -1014.8616     -461.48935      47223.051      49694.28      -4492.084      -478.42192      0.86103461     52282.903      0              0              0              3            
     64100   5004.3597      91104.496     -998.60962     -409.66128      47402.418      50116.875     -4509.8727     -496.65347      0.85625891     52574.505      0              0              0              3            
     64200   5004.3318      90150.755     -1081.6689     -345.68411      46813.032      49839.993     -4622.9212     -451.99547      0.85118135     52888.128      0              0              0              3            
     64300   4756.6113      185237.16      10372.334     -348.28673      130274.37      50348.627     -4915.9253     -493.95657      0.84548304     53244.579      0              0              0              4            
     64400   4938.0373      88369.543     -1026.086      -323.9222       45219.934      49937.225     -4937.0438     -500.56437      0.85969321     52364.481      0              0              0              4            
     64500   4562.652       88906.783     -1002.6705     -486.74672      46039.935      49646.056     -4796.6492     -493.14197      0.86079087     52297.707      0              0              0              4            
     64600   4784.6673      87944.26      -1036.4164     -327.31578      45185.673      49386.878     -4774.1692     -490.38967      0.8564396      52563.413      0              0              0              4            
     64700   4557.1947      89910.277     -1054.2385     -333.37901      46948.121      49382.103     -4565.0379     -467.29099      0.85073288     52916.009      0              0              0              4            
     64800   4546.0509      88196.717     -986.22968     -243.17056      45243.941      49383.732     -4716.6674     -484.88864      0.84493903     53278.861      0              0              0              4            
     64900   4557.0842      88096.236     -980.53357     -397.00633      45213.787      49091.441     -4364.3373     -467.11437      0.83858123     53682.801      0              0              0              4            
     65000   4410.8881      87087.738     -1035.2468     -299.49374      43892.209      49727.721     -4739.3604     -458.09131      0.83194355     54111.11       0              0              0              4            
     65100   4544.8263      83738.324     -965.45359     -372.24252      41026.697      49082.177     -4600.2763     -432.57793      0.82550307     54533.279      0              0              0              4            
     65200   4404.8231      85127.781     -996.59134     -471.31993      42717.035      49387.937     -5037.8048     -471.47442      0.81901375     54965.364      0              0              0              4            
     65300   4294.1304      87240.654     -903.25212     -355.71688      44514.488      49277.125     -4805.1894